UNNAMED
13312
    0UNL     CO    1   3.357   1.783   0.052
    0UNL     OC    2   3.344   1.689  -0.015
    0UNL     OC    3   3.369   1.877   0.118
    1UNL     CO    4   0.202   1.271   4.430
    1UNL     OC    5   0.307   1.295   4.387
    1UNL     OC    6   0.097   1.247   4.473
    2UNL     CO    7   1.134   3.869   3.002
    2UNL     OC    8   1.099   3.921   2.905
    2UNL     OC    9   1.169   3.818   3.100
    3UNL     CO   10   1.091   4.273   1.673
    3UNL     OC   11   1.011   4.223   1.741
    3UNL     OC   12   1.170   4.324   1.605
    4UNL     CO   13   4.180   2.255   2.278
    4UNL     OC   14   4.247   2.280   2.186
    4UNL     OC   15   4.114   2.231   2.370
    5UNL     CO   16   0.542   2.795   3.488
    5UNL     OC   17   0.606   2.845   3.404
    5UNL     OC   18   0.478   2.746   3.571
    6UNL     CO   19   2.584   2.108   3.771
    6UNL     OC   20   2.606   2.077   3.881
    6UNL     OC   21   2.563   2.139   3.661
    7UNL     CO   22   0.996   2.688   4.835
    7UNL     OC   23   0.927   2.615   4.778
    7UNL     OC   24   1.065   2.761   4.893
    8UNL     CO   25   4.608   3.304   0.702
    8UNL     OC   26   4.524   3.320   0.623
    8UNL     OC   27   4.692   3.288   0.780
    9UNL     CO   28   4.510   3.028   2.013
    9UNL     OC   29   4.594   3.018   1.933
    9UNL     OC   30   4.427   3.037   2.094
   10UNL     CO   31   4.699   4.304   1.271
   10UNL     OC   32   4.685   4.343   1.379
   10UNL     OC   33   4.713   4.265   1.162
   11UNL     CO   34   4.508   4.181   1.365
   11UNL     OC   35   4.568   4.156   1.460
   11UNL     OC   36   4.448   4.207   1.269
   12UNL     CO   37   4.805   4.918   4.757
   12UNL     OC   38   4.864   5.008   4.713
   12UNL     OC   39   4.747   4.827   4.801
   13UNL     CO   40   3.025   4.854   2.820
   13UNL     OC   41   3.055   4.784   2.733
   13UNL     OC   42   2.996   4.925   2.907
   14UNL     CO   43   2.487   0.052   0.386
   14UNL     OC   44   2.411   0.115   0.325
   14UNL     OC   45   2.562  -0.011   0.447
   15UNL     CO   46   4.590   3.914   2.299
   15UNL     OC   47   4.662   3.964   2.223
   15UNL     OC   48   4.519   3.863   2.375
   16UNL     CO   49   4.321   2.400   0.253
   16UNL     OC   50   4.210   2.371   0.271
   16UNL     OC   51   4.432   2.429   0.235
   17UNL     CO   52   1.796   0.448   4.887
   17UNL     OC   53   1.823   0.520   4.974
   17UNL     OC   54   1.769   0.376   4.800
   18UNL     CO   55   0.196   4.329   0.874
   18UNL     OC   56   0.230   4.250   0.950
   18UNL     OC   57   0.161   4.409   0.797
   19UNL     CO   58   3.980   0.995   0.981
   19UNL     OC   59   3.982   0.915   0.897
   19UNL     OC   60   3.978   1.075   1.065
   20UNL     CO   61   2.576   4.145   1.938
   20UNL     OC   62   2.586   4.187   1.831
   20UNL     OC   63   2.566   4.103   2.046
   21UNL     CO   64   4.928   4.189   2.896
   21UNL     OC   65   5.042   4.171   2.912
   21UNL     OC   66   4.815   4.207   2.881
   22UNL     CO   67   4.210   3.930   3.608
   22UNL     OC   68   4.193   3.878   3.710
   22UNL     OC   69   4.227   3.983   3.506
   23UNL     CO   70   1.494   2.422   0.838
   23UNL     OC   71   1.585   2.351   0.838
   23UNL     OC   72   1.402   2.493   0.838
   24UNL     CO   73   2.969   0.232   2.124
   24UNL     OC   74   2.954   0.180   2.226
   24UNL     OC   75   2.984   0.285   2.022
   25UNL     CO   76   2.255   1.634   1.128
   25UNL     OC   77   2.169   1.710   1.113
   25UNL     OC   78   2.341   1.558   1.143
   26UNL     CO   79   3.858   0.036   1.580
   26UNL     OC   80   3.868   0.148   1.551
   26UNL     OC   81   3.847  -0.076   1.609
   27UNL     CO   82   2.509   4.887   3.764
   27UNL     OC   83   2.404   4.848   3.735
   27UNL     OC   84   2.615   4.925   3.792
   28UNL     CO   85   0.566   0.549   2.029
   28UNL     OC   86   0.552   0.548   1.913
   28UNL     OC   87   0.581   0.550   2.144
   29UNL     CO   88   2.029   0.976   3.714
   29UNL     OC   89   2.035   0.975   3.830
   29UNL     OC   90   2.024   0.977   3.598
   30UNL     CO   91   2.489   0.118   2.576
   30UNL     OC   92   2.444   0.098   2.681
   30UNL     OC   93   2.534   0.139   2.471
   31UNL     CO   94   2.940   1.688   2.094
   31UNL     OC   95   2.883   1.637   2.006
   31UNL     OC   96   2.996   1.738   2.181
   32UNL     CO   97   4.633   1.371   4.435
   32UNL     OC   98   4.601   1.383   4.324
   32UNL     OC   99   4.665   1.358   4.545
   33UNL     CO  100   0.862   1.615   2.207
   33UNL     OC  101   0.901   1.649   2.103
   33UNL     OC  102   0.822   1.581   2.311
   34UNL     CO  103   1.593   3.818   3.726
   34UNL     OC  104   1.699   3.771   3.730
   34UNL     OC  105   1.487   3.866   3.722
   35UNL     CO  106   2.110   3.942   0.329
   35UNL     OC  107   1.999   3.965   0.350
   35UNL     OC  108   2.222   3.919   0.308
   36UNL     CO  109   4.221   2.398   3.637
   36UNL     OC  110   4.213   2.508   3.601
   36UNL     OC  111   4.229   2.288   3.674
   37UNL     CO  112   2.541   4.459   4.669
   37UNL     OC  113   2.440   4.433   4.720
   37UNL     OC  114   2.642   4.484   4.618
   38UNL     CO  115   2.227   4.618   1.330
   38UNL     OC  116   2.144   4.688   1.289
   38UNL     OC  117   2.309   4.548   1.372
   39UNL     CO  118   0.817   0.237   4.817
   39UNL     OC  119   0.733   0.215   4.894
   39UNL     OC  120   0.901   0.260   4.740
   40UNL     CO  121   4.569   4.415   0.554
   40UNL     OC  122   4.529   4.485   0.637
   40UNL     OC  123   4.609   4.346   0.471
   41UNL     CO  124   2.484   1.013   3.191
   41UNL     OC  125   2.423   1.020   3.289
   41UNL     OC  126   2.544   1.006   3.092
   42UNL     CO  127   0.899   4.241   3.912
   42UNL     OC  128   0.890   4.355   3.931
   42UNL     OC  129   0.908   4.127   3.893
   43UNL     CO  130   3.659   2.300   0.232
   43UNL     OC  131   3.615   2.335   0.131
   43UNL     OC  132   3.703   2.265   0.334
   44UNL     CO  133   4.536   4.437   3.151
   44UNL     OC  134   4.608   4.505   3.212
   44UNL     OC  135   4.465   4.369   3.090
   45UNL     CO  136   3.217   2.943   1.940
   45UNL     OC  137   3.185   3.025   2.016
   45UNL     OC  138   3.249   2.861   1.864
   46UNL     CO  139   0.501   0.944   2.361
   46UNL     OC  140   0.426   1.017   2.411
   46UNL     OC  141   0.576   0.870   2.311
   47UNL     CO  142   2.663   1.168   4.425
   47UNL     OC  143   2.725   1.265   4.412
   47UNL     OC  144   2.600   1.071   4.438
   48UNL     CO  145   0.125   3.540   0.346
   48UNL     OC  146   0.153   3.431   0.318
   48UNL     OC  147   0.098   3.650   0.374
   49UNL     CO  148   2.398   3.491   3.238
   49UNL     OC  149   2.355   3.581   3.298
   49UNL     OC  150   2.441   3.401   3.179
   50UNL     CO  151   2.997   4.379   3.661
   50UNL     OC  152   2.953   4.317   3.748
   50UNL     OC  153   3.041   4.441   3.573
   51UNL     CO  154   0.962   2.592   1.019
   51UNL     OC  155   0.888   2.503   1.020
   51UNL     OC  156   1.036   2.682   1.018
   52UNL     CO  157   3.354   2.388   2.933
   52UNL     OC  158   3.434   2.405   2.851
   52UNL     OC  159   3.273   2.370   3.015
   53UNL     CO  160   2.307   0.113   2.961
   53UNL     OC  161   2.289   0.226   2.979
   53UNL     OC  162   2.325  -0.001   2.944
   54UNL     CO  163   0.835   2.367   1.927
   54UNL     OC  164   0.797   2.275   1.868
   54UNL     OC  165   0.873   2.459   1.986
   55UNL     CO  166   3.665   0.547   1.443
   55UNL     OC  167   3.614   0.593   1.350
   55UNL     OC  168   3.716   0.501   1.536
   56UNL     CO  169   1.724   0.893   4.293
   56UNL     OC  170   1.807   0.855   4.221
   56UNL     OC  171   1.641   0.931   4.364
   57UNL     CO  172   4.427   2.850   0.007
   57UNL     OC  173   4.512   2.846  -0.072
   57UNL     OC  174   4.342   2.855   0.085
   58UNL     CO  175   3.710   3.353   4.325
   58UNL     OC  176   3.651   3.341   4.225
   58UNL     OC  177   3.769   3.365   4.424
   59UNL     CO  178   1.948   4.773   2.836
   59UNL     OC  179   1.959   4.695   2.922
   59UNL     OC  180   1.938   4.852   2.751
   60UNL     CO  181   0.833   1.985   1.376
   60UNL     OC  182   0.791   1.901   1.443
   60UNL     OC  183   0.876   2.069   1.308
   61UNL     CO  184   1.558   3.818   1.720
   61UNL     OC  185   1.493   3.914   1.724
   61UNL     OC  186   1.624   3.723   1.716
   62UNL     CO  187   1.040   0.402   3.977
   62UNL     OC  188   1.004   0.383   3.868
   62UNL     OC  189   1.077   0.420   4.086
   63UNL     CO  190   4.809   2.137   2.833
   63UNL     OC  191   4.815   2.056   2.916
   63UNL     OC  192   4.804   2.218   2.750
   64UNL     CO  193   0.155   2.410   4.318
   64UNL     OC  194   0.067   2.428   4.245
   64UNL     OC  195   0.243   2.391   4.391
   65UNL     CO  196   1.905   1.891   1.269
   65UNL     OC  197   1.925   1.876   1.156
   65UNL     OC  198   1.884   1.905   1.382
   66UNL     CO  199   4.169   0.555   2.056
   66UNL     OC  200   4.163   0.549   1.940
   66UNL     OC  201   4.175   0.562   2.172
   67UNL     CO  202   0.994   0.533   0.564
   67UNL     OC  203   1.097   0.584   0.545
   67UNL     OC  204   0.892   0.481   0.583
   68UNL     CO  205   0.622   4.347   0.665
   68UNL     OC  206   0.718   4.399   0.702
   68UNL     OC  207   0.525   4.294   0.629
   69UNL     CO  208   4.385   0.717   4.353
   69UNL     OC  209   4.340   0.754   4.252
   69UNL     OC  210   4.431   0.681   4.453
   70UNL     CO  211   0.229   2.425   0.515
   70UNL     OC  212   0.175   2.511   0.459
   70UNL     OC  213   0.283   2.339   0.572
   71UNL     CO  214   1.857   0.314   2.239
   71UNL     OC  215   1.948   0.242   2.238
   71UNL     OC  216   1.767   0.386   2.240
   72UNL     CO  217   1.205   1.488   4.038
   72UNL     OC  218   1.233   1.599   4.016
   72UNL     OC  219   1.178   1.378   4.059
   73UNL     CO  220   4.178   4.080   2.571
   73UNL     OC  221   4.085   4.058   2.504
   73UNL     OC  222   4.270   4.102   2.637
   74UNL     CO  223   2.570   0.713   3.937
   74UNL     OC  224   2.561   0.637   4.025
   74UNL     OC  225   2.578   0.789   3.850
   75UNL     CO  226   4.052   4.538   3.746
   75UNL     OC  227   4.061   4.427   3.778
   75UNL     OC  228   4.043   4.649   3.714
   76UNL     CO  229   0.234   1.309   3.357
   76UNL     OC  230   0.324   1.348   3.295
   76UNL     OC  231   0.144   1.270   3.418
   77UNL     CO  232   0.029   4.112   0.440
   77UNL     OC  233   0.067   4.131   0.548
   77UNL     OC  234  -0.010   4.094   0.333
   78UNL     CO  235   1.438   0.054   0.672
   78UNL     OC  236   1.431   0.077   0.786
   78UNL     OC  237   1.444   0.031   0.559
   79UNL     CO  238   1.763   1.781   0.560
   79UNL     OC  239   1.766   1.784   0.676
   79UNL     OC  240   1.760   1.778   0.445
   80UNL     CO  241   1.769   4.167   4.905
   80UNL     OC  242   1.781   4.220   4.803
   80UNL     OC  243   1.756   4.114   5.008
   81UNL     CO  244   2.456   2.322   0.840
   81UNL     OC  245   2.448   2.301   0.954
   81UNL     OC  246   2.464   2.343   0.726
   82UNL     CO  247   0.157   0.082   0.666
   82UNL     OC  248   0.087   0.092   0.574
   82UNL     OC  249   0.228   0.072   0.757
   83UNL     CO  250   3.493   0.969   0.630
   83UNL     OC  251   3.606   0.996   0.628
   83UNL     OC  252   3.380   0.943   0.632
   84UNL     CO  253   0.788   0.061   0.504
   84UNL     OC  254   0.794   0.092   0.615
   84UNL     OC  255   0.782   0.030   0.392
   85UNL     CO  256   1.786   4.184   1.626
   85UNL     OC  257   1.703   4.233   1.690
   85UNL     OC  258   1.870   4.135   1.562
   86UNL     CO  259   2.383   3.180   1.023
   86UNL     OC  260   2.384   3.207   0.911
   86UNL     OC  261   2.382   3.153   1.136
   87UNL     CO  262   2.194   1.615   0.676
   87UNL     OC  263   2.129   1.539   0.618
   87UNL     OC  264   2.259   1.690   0.735
   88UNL     CO  265   4.362   0.304   3.753
   88UNL     OC  266   4.374   0.325   3.639
   88UNL     OC  267   4.349   0.283   3.866
   89UNL     CO  268   2.390   1.049   3.826
   89UNL     OC  269   2.392   0.934   3.814
   89UNL     OC  270   2.387   1.165   3.837
   90UNL     CO  271   1.327   3.552   3.432
   90UNL     OC  272   1.217   3.521   3.417
   90UNL     OC  273   1.438   3.583   3.447
   91UNL     CO  274   4.577   3.429   4.062
   91UNL     OC  275   4.524   3.388   3.967
   91UNL     OC  276   4.630   3.470   4.157
   92UNL     CO  277   2.352   2.834   4.644
   92UNL     OC  278   2.412   2.925   4.685
   92UNL     OC  279   2.292   2.744   4.603
   93UNL     CO  280   0.345   4.074   3.962
   93UNL     OC  281   0.268   4.063   4.049
   93UNL     OC  282   0.421   4.084   3.875
   94UNL     CO  283   0.873   1.494   0.596
   94UNL     OC  284   0.959   1.434   0.547
   94UNL     OC  285   0.787   1.554   0.645
   95UNL     CO  286   0.187   0.421   2.354
   95UNL     OC  287   0.200   0.381   2.246
   95UNL     OC  288   0.174   0.460   2.463
   96UNL     CO  289   2.090   4.500   0.729
   96UNL     OC  290   2.188   4.457   0.775
   96UNL     OC  291   1.993   4.542   0.683
   97UNL     CO  292   2.465   3.472   3.479
   97UNL     OC  293   2.517   3.532   3.394
   97UNL     OC  294   2.412   3.412   3.563
   98UNL     CO  295   3.073   2.083   4.238
   98UNL     OC  296   3.116   2.010   4.317
   98UNL     OC  297   3.030   2.156   4.159
   99UNL     CO  298   2.704   0.240   3.275
   99UNL     OC  299   2.788   0.192   3.212
   99UNL     OC  300   2.619   0.288   3.339
  100UNL     CO  301   0.197   2.935   4.379
  100UNL     OC  302   0.231   2.943   4.490
  100UNL     OC  303   0.163   2.927   4.269
  101UNL     CO  304   0.612   4.800   4.370
  101UNL     OC  305   0.581   4.695   4.330
  101UNL     OC  306   0.642   4.904   4.411
  102UNL     CO  307   2.888   0.836   4.656
  102UNL     OC  308   2.773   0.853   4.649
  102UNL     OC  309   3.002   0.820   4.662
  103UNL     CO  310   2.644   1.555   0.913
  103UNL     OC  311   2.583   1.620   0.988
  103UNL     OC  312   2.705   1.491   0.838
  104UNL     CO  313   1.708   1.363   2.717
  104UNL     OC  314   1.664   1.257   2.699
  104UNL     OC  315   1.751   1.469   2.734
  105UNL     CO  316   3.628   2.676   0.975
  105UNL     OC  317   3.642   2.727   1.079
  105UNL     OC  318   3.613   2.625   0.872
  106UNL     CO  319   1.019   0.843   1.732
  106UNL     OC  320   1.049   0.888   1.835
  106UNL     OC  321   0.989   0.799   1.629
  107UNL     CO  322   0.569   3.627   1.298
  107UNL     OC  323   0.630   3.635   1.396
  107UNL     OC  324   0.508   3.619   1.199
  108UNL     CO  325   2.358   0.649   3.743
  108UNL     OC  326   2.367   0.645   3.627
  108UNL     OC  327   2.350   0.654   3.858
  109UNL     CO  328   4.837   2.686   3.647
  109UNL     OC  329   4.823   2.667   3.534
  109UNL     OC  330   4.850   2.705   3.761
  110UNL     CO  331   3.955   0.760   1.453
  110UNL     OC  332   3.986   0.707   1.355
  110UNL     OC  333   3.924   0.814   1.552
  111UNL     CO  334   3.321   2.719   2.081
  111UNL     OC  335   3.295   2.706   1.969
  111UNL     OC  336   3.347   2.731   2.194
  112UNL     CO  337   0.811   0.905   1.374
  112UNL     OC  338   0.719   0.975   1.380
  112UNL     OC  339   0.903   0.835   1.368
  113UNL     CO  340   3.007   0.810   0.916
  113UNL     OC  341   3.072   0.777   0.825
  113UNL     OC  342   2.942   0.842   1.006
  114UNL     CO  343   2.412   0.153   4.006
  114UNL     OC  344   2.346   0.209   3.928
  114UNL     OC  345   2.478   0.097   4.083
  115UNL     CO  346   4.711   1.649   1.002
  115UNL     OC  347   4.627   1.728   0.988
  115UNL     OC  348   4.794   1.570   1.015
  116UNL     CO  349   2.553   4.904   4.127
  116UNL     OC  350   2.438   4.903   4.111
  116UNL     OC  351   2.668   4.906   4.143
  117UNL     CO  352   0.666   1.136   3.373
  117UNL     OC  353   0.685   1.121   3.260
  117UNL     OC  354   0.647   1.151   3.487
  118UNL     CO  355   1.723   2.047   1.814
  118UNL     OC  356   1.699   2.050   1.700
  118UNL     OC  357   1.747   2.044   1.927
  119UNL     CO  358   1.961   0.786   1.078
  119UNL     OC  359   2.051   0.750   1.142
  119UNL     OC  360   1.870   0.821   1.015
  120UNL     CO  361   1.849   2.305   0.050
  120UNL     OC  362   1.909   2.206   0.054
  120UNL     OC  363   1.789   2.404   0.047
  121UNL     CO  364   2.290   0.511   2.721
  121UNL     OC  365   2.336   0.517   2.614
  121UNL     OC  366   2.245   0.504   2.827
  122UNL     CO  367   2.603   2.673   0.373
  122UNL     OC  368   2.543   2.640   0.467
  122UNL     OC  369   2.663   2.706   0.280
  123UNL     CO  370   4.437   0.698   1.830
  123UNL     OC  371   4.539   0.671   1.879
  123UNL     OC  372   4.336   0.725   1.781
  124UNL     CO  373   4.951   0.596   1.619
  124UNL     OC  374   4.920   0.702   1.654
  124UNL     OC  375   4.982   0.490   1.583
  125UNL     CO  376   4.636   1.546   2.789
  125UNL     OC  377   4.613   1.590   2.684
  125UNL     OC  378   4.660   1.503   2.894
  126UNL     CO  379   0.815   0.474   3.072
  126UNL     OC  380   0.816   0.476   3.188
  126UNL     OC  381   0.813   0.472   2.956
  127UNL     CO  382   4.489   2.630   3.411
  127UNL     OC  383   4.442   2.533   3.454
  127UNL     OC  384   4.535   2.728   3.369
  128UNL     CO  385   4.998   1.041   3.810
  128UNL     OC  386   4.993   0.991   3.706
  128UNL     OC  387   5.003   1.091   3.915
  129UNL     CO  388   3.557   3.859   0.411
  129UNL     OC  389   3.670   3.842   0.389
  129UNL     OC  390   3.445   3.877   0.434
  130UNL     CO  391   2.058   1.667   3.125
  130UNL     OC  392   2.053   1.645   3.011
  130UNL     OC  393   2.062   1.690   3.238
  131UNL     CO  394   2.912   4.570   0.392
  131UNL     OC  395   2.945   4.465   0.428
  131UNL     OC  396   2.880   4.675   0.356
  132UNL     CO  397   0.867   3.172   4.747
  132UNL     OC  398   0.869   3.180   4.863
  132UNL     OC  399   0.865   3.163   4.632
  133UNL     CO  400   1.380   1.974   4.318
  133UNL     OC  401   1.365   1.871   4.370
  133UNL     OC  402   1.395   2.077   4.266
  134UNL     CO  403   3.660   0.779   4.229
  134UNL     OC  404   3.571   0.854   4.225
  134UNL     OC  405   3.749   0.705   4.233
  135UNL     CO  406   1.991   0.768   3.345
  135UNL     OC  407   1.906   0.790   3.270
  135UNL     OC  408   2.076   0.747   3.421
  136UNL     CO  409   1.206   0.263   2.199
  136UNL     OC  410   1.176   0.288   2.090
  136UNL     OC  411   1.235   0.238   2.309
  137UNL     CO  412   1.593   4.429   3.622
  137UNL     OC  413   1.695   4.400   3.576
  137UNL     OC  414   1.491   4.458   3.668
  138UNL     CO  415   3.657   3.402   0.209
  138UNL     OC  416   3.570   3.456   0.155
  138UNL     OC  417   3.745   3.348   0.263
  139UNL     CO  418   1.583   3.203   2.882
  139UNL     OC  419   1.573   3.214   2.997
  139UNL     OC  420   1.593   3.193   2.767
  140UNL     CO  421   3.810   4.697   4.969
  140UNL     OC  422   3.914   4.737   4.937
  140UNL     OC  423   3.705   4.658   5.001
  141UNL     CO  424   1.819   0.525   3.417
  141UNL     OC  425   1.795   0.605   3.498
  141UNL     OC  426   1.843   0.446   3.336
  142UNL     CO  427   0.222   0.523   1.063
  142UNL     OC  428   0.313   0.595   1.065
  142UNL     OC  429   0.130   0.452   1.062
  143UNL     CO  430   4.022   3.479   1.935
  143UNL     OC  431   3.957   3.573   1.954
  143UNL     OC  432   4.086   3.385   1.915
  144UNL     CO  433   0.684   4.863   0.025
  144UNL     OC  434   0.589   4.930   0.020
  144UNL     OC  435   0.778   4.796   0.030
  145UNL     CO  436   2.891   3.272   1.351
  145UNL     OC  437   2.801   3.265   1.279
  145UNL     OC  438   2.982   3.280   1.423
  146UNL     CO  439   4.969   4.516   1.119
  146UNL     OC  440   5.043   4.484   1.036
  146UNL     OC  441   4.894   4.549   1.202
  147UNL     CO  442   3.321   2.819   3.731
  147UNL     OC  443   3.252   2.833   3.639
  147UNL     OC  444   3.391   2.806   3.823
  148UNL     CO  445   1.283   4.402   2.686
  148UNL     OC  446   1.293   4.414   2.571
  148UNL     OC  447   1.273   4.389   2.801
  149UNL     CO  448   3.031   2.654   4.639
  149UNL     OC  449   3.113   2.642   4.719
  149UNL     OC  450   2.949   2.667   4.558
  150UNL     CO  451   2.606   0.432   2.104
  150UNL     OC  452   2.551   0.441   2.003
  150UNL     OC  453   2.662   0.424   2.206
  151UNL     CO  454   1.117   1.136   2.912
  151UNL     OC  455   1.011   1.163   2.950
  151UNL     OC  456   1.224   1.108   2.874
  152UNL     CO  457   3.646   2.998   3.865
  152UNL     OC  458   3.699   2.916   3.926
  152UNL     OC  459   3.592   3.081   3.803
  153UNL     CO  460   0.824   0.792   0.538
  153UNL     OC  461   0.919   0.855   0.517
  153UNL     OC  462   0.729   0.730   0.560
  154UNL     CO  463   0.712   3.180   0.142
  154UNL     OC  464   0.707   3.287   0.187
  154UNL     OC  465   0.718   3.073   0.096
  155UNL     CO  466   0.738   1.152   1.064
  155UNL     OC  467   0.691   1.118   0.964
  155UNL     OC  468   0.786   1.186   1.164
  156UNL     CO  469   0.875   3.728   2.005
  156UNL     OC  470   0.839   3.712   1.896
  156UNL     OC  471   0.911   3.744   2.114
  157UNL     CO  472   2.085   4.928   3.547
  157UNL     OC  473   2.164   4.862   3.495
  157UNL     OC  474   2.005   4.994   3.600
  158UNL     CO  475   4.725   1.378   0.027
  158UNL     OC  476   4.686   1.305  -0.055
  158UNL     OC  477   4.763   1.450   0.109
  159UNL     CO  478   2.622   1.509   4.904
  159UNL     OC  479   2.637   1.483   5.015
  159UNL     OC  480   2.607   1.536   4.792
  160UNL     CO  481   0.280   0.523   1.457
  160UNL     OC  482   0.343   0.547   1.551
  160UNL     OC  483   0.217   0.499   1.363
  161UNL     CO  484   4.592   1.550   2.096
  161UNL     OC  485   4.477   1.560   2.084
  161UNL     OC  486   4.707   1.540   2.108
  162UNL     CO  487   2.082   1.836   2.782
  162UNL     OC  488   2.014   1.814   2.691
  162UNL     OC  489   2.150   1.858   2.873
  163UNL     CO  490   0.598   4.109   2.497
  163UNL     OC  491   0.586   4.150   2.389
  163UNL     OC  492   0.610   4.068   2.605
  164UNL     CO  493   0.112   3.627   1.602
  164UNL     OC  494   0.145   3.588   1.498
  164UNL     OC  495   0.080   3.666   1.706
  165UNL     CO  496   2.590   3.895   3.397
  165UNL     OC  497   2.665   3.870   3.482
  165UNL     OC  498   2.514   3.920   3.313
  166UNL     CO  499   1.078   1.014   3.734
  166UNL     OC  500   1.180   1.044   3.688
  166UNL     OC  501   0.976   0.983   3.780
  167UNL     CO  502   4.823   0.485   4.868
  167UNL     OC  503   4.754   0.463   4.777
  167UNL     OC  504   4.892   0.507   4.959
  168UNL     CO  505   4.034   4.331   1.625
  168UNL     OC  506   4.010   4.223   1.662
  168UNL     OC  507   4.058   4.438   1.588
  169UNL     CO  508   3.118   2.469   2.040
  169UNL     OC  509   3.157   2.480   2.149
  169UNL     OC  510   3.079   2.458   1.931
  170UNL     CO  511   3.493   0.744   3.580
  170UNL     OC  512   3.475   0.858   3.571
  170UNL     OC  513   3.511   0.630   3.589
  171UNL     CO  514   1.901   3.136   0.034
  171UNL     OC  515   1.997   3.146  -0.030
  171UNL     OC  516   1.805   3.127   0.098
  172UNL     CO  517   1.184   2.535   1.832
  172UNL     OC  518   1.200   2.539   1.947
  172UNL     OC  519   1.168   2.531   1.717
  173UNL     CO  520   3.498   3.781   4.271
  173UNL     OC  521   3.387   3.773   4.240
  173UNL     OC  522   3.610   3.789   4.302
  174UNL     CO  523   1.709   3.442   4.181
  174UNL     OC  524   1.706   3.465   4.067
  174UNL     OC  525   1.713   3.418   4.294
  175UNL     CO  526   0.011   1.457   3.175
  175UNL     OC  527   0.034   1.361   3.114
  175UNL     OC  528  -0.012   1.553   3.237
  176UNL     CO  529   3.193   1.482   4.871
  176UNL     OC  530   3.173   1.470   4.758
  176UNL     OC  531   3.214   1.494   4.985
  177UNL     CO  532   1.764   2.406   3.372
  177UNL     OC  533   1.683   2.436   3.449
  177UNL     OC  534   1.845   2.376   3.295
  178UNL     CO  535   1.464   4.904   4.716
  178UNL     OC  536   1.414   4.899   4.612
  178UNL     OC  537   1.515   4.909   4.820
  179UNL     CO  538   2.738   3.678   2.139
  179UNL     OC  539   2.723   3.652   2.027
  179UNL     OC  540   2.754   3.703   2.251
  180UNL     CO  541   3.883   3.306   4.147
  180UNL     OC  542   3.966   3.372   4.101
  180UNL     OC  543   3.799   3.240   4.193
  181UNL     CO  544   4.195   2.625   0.961
  181UNL     OC  545   4.194   2.624   0.845
  181UNL     OC  546   4.197   2.626   1.076
  182UNL     CO  547   1.391   1.854   1.655
  182UNL     OC  548   1.422   1.936   1.730
  182UNL     OC  549   1.360   1.772   1.579
  183UNL     CO  550   4.760   0.216   0.843
  183UNL     OC  551   4.681   0.288   0.889
  183UNL     OC  552   4.838   0.144   0.798
  184UNL     CO  553   4.168   2.854   2.354
  184UNL     OC  554   4.184   2.799   2.455
  184UNL     OC  555   4.151   2.909   2.253
  185UNL     CO  556   3.166   1.828   3.300
  185UNL     OC  557   3.162   1.910   3.382
  185UNL     OC  558   3.169   1.747   3.218
  186UNL     CO  559   3.223   2.240   1.795
  186UNL     OC  560   3.326   2.196   1.826
  186UNL     OC  561   3.120   2.284   1.764
  187UNL     CO  562   4.577   1.882   3.585
  187UNL     OC  563   4.539   1.825   3.491
  187UNL     OC  564   4.614   1.939   3.679
  188UNL     CO  565   1.134   3.261   4.601
  188UNL     OC  566   1.103   3.262   4.713
  188UNL     OC  567   1.165   3.261   4.489
  189UNL     CO  568   4.750   2.240   1.480
  189UNL     OC  569   4.713   2.310   1.565
  189UNL     OC  570   4.787   2.170   1.395
  190UNL     CO  571   3.401   3.022   0.609
  190UNL     OC  572   3.437   3.055   0.714
  190UNL     OC  573   3.365   2.989   0.504
  191UNL     CO  574   3.756   4.888   1.049
  191UNL     OC  575   3.683   4.826   0.984
  191UNL     OC  576   3.829   4.950   1.114
  192UNL     CO  577   3.550   4.219   0.082
  192UNL     OC  578   3.619   4.222  -0.011
  192UNL     OC  579   3.480   4.215   0.175
  193UNL     CO  580   3.123   2.794   0.833
  193UNL     OC  581   3.151   2.753   0.938
  193UNL     OC  582   3.094   2.835   0.728
  194UNL     CO  583   2.741   0.855   1.397
  194UNL     OC  584   2.800   0.819   1.490
  194UNL     OC  585   2.681   0.890   1.304
  195UNL     CO  586   4.389   0.589   1.486
  195UNL     OC  587   4.469   0.643   1.550
  195UNL     OC  588   4.308   0.536   1.422
  196UNL     CO  589   4.115   3.238   0.503
  196UNL     OC  590   4.226   3.212   0.484
  196UNL     OC  591   4.003   3.263   0.523
  197UNL     CO  592   2.827   4.984   2.037
  197UNL     OC  593   2.884   4.976   2.138
  197UNL     OC  594   2.769   4.992   1.937
  198UNL     CO  595   4.416   2.919   2.366
  198UNL     OC  596   4.388   2.834   2.292
  198UNL     OC  597   4.443   3.003   2.441
  199UNL     CO  598   3.091   0.726   1.764
  199UNL     OC  599   2.996   0.666   1.793
  199UNL     OC  600   3.187   0.785   1.735
  200UNL     CO  601   4.560   3.435   3.364
  200UNL     OC  602   4.446   3.455   3.365
  200UNL     OC  603   4.674   3.414   3.363
  201UNL     CO  604   3.815   4.663   2.541
  201UNL     OC  605   3.846   4.565   2.488
  201UNL     OC  606   3.784   4.762   2.594
  202UNL     CO  607   3.195   1.149   2.288
  202UNL     OC  608   3.139   1.098   2.200
  202UNL     OC  609   3.251   1.200   2.376
  203UNL     CO  610   0.445   2.737   2.829
  203UNL     OC  611   0.443   2.731   2.714
  203UNL     OC  612   0.447   2.742   2.945
  204UNL     CO  613   1.923   0.838   2.206
  204UNL     OC  614   1.958   0.915   2.285
  204UNL     OC  615   1.887   0.761   2.126
  205UNL     CO  616   3.949   2.410   1.945
  205UNL     OC  617   3.836   2.390   1.925
  205UNL     OC  618   4.061   2.429   1.964
  206UNL     CO  619   2.771   2.449   3.254
  206UNL     OC  620   2.868   2.433   3.316
  206UNL     OC  621   2.674   2.464   3.192
  207UNL     CO  622   1.166   0.234   1.805
  207UNL     OC  623   1.153   0.257   1.692
  207UNL     OC  624   1.179   0.211   1.918
  208UNL     CO  625   0.614   1.188   4.247
  208UNL     OC  626   0.540   1.159   4.162
  208UNL     OC  627   0.687   1.218   4.331
  209UNL     CO  628   2.002   3.503   3.568
  209UNL     OC  629   2.000   3.504   3.684
  209UNL     OC  630   2.004   3.503   3.452
  210UNL     CO  631   2.416   2.832   4.069
  210UNL     OC  632   2.360   2.846   3.968
  210UNL     OC  633   2.473   2.818   4.169
  211UNL     CO  634   3.168   3.478   1.427
  211UNL     OC  635   3.100   3.537   1.500
  211UNL     OC  636   3.236   3.419   1.354
  212UNL     CO  637   1.851   1.219   4.423
  212UNL     OC  638   1.788   1.167   4.341
  212UNL     OC  639   1.915   1.271   4.506
  213UNL     CO  640   4.753   3.117   3.776
  213UNL     OC  641   4.687   3.035   3.827
  213UNL     OC  642   4.818   3.198   3.726
  214UNL     CO  643   1.395   0.932   1.338
  214UNL     OC  644   1.404   1.039   1.296
  214UNL     OC  645   1.386   0.824   1.381
  215UNL     CO  646   1.879   0.217   2.824
  215UNL     OC  647   1.848   0.111   2.857
  215UNL     OC  648   1.910   0.324   2.792
  216UNL     CO  649   2.518   2.239   1.705
  216UNL     OC  650   2.577   2.283   1.615
  216UNL     OC  651   2.459   2.195   1.795
  217UNL     CO  652   4.474   3.986   1.226
  217UNL     OC  653   4.508   3.924   1.318
  217UNL     OC  654   4.439   4.048   1.134
  218UNL     CO  655   0.522   2.338   0.057
  218UNL     OC  656   0.495   2.353   0.169
  218UNL     OC  657   0.548   2.324  -0.055
  219UNL     CO  658   0.784   4.198   3.254
  219UNL     OC  659   0.809   4.149   3.152
  219UNL     OC  660   0.759   4.248   3.356
  220UNL     CO  661   4.065   1.474   0.291
  220UNL     OC  662   3.965   1.429   0.255
  220UNL     OC  663   4.165   1.520   0.327
  221UNL     CO  664   1.924   0.098   1.453
  221UNL     OC  665   2.026   0.105   1.398
  221UNL     OC  666   1.823   0.092   1.508
  222UNL     CO  667   0.569   2.640   0.808
  222UNL     OC  668   0.539   2.637   0.696
  222UNL     OC  669   0.600   2.644   0.920
  223UNL     CO  670   1.956   2.506   3.646
  223UNL     OC  671   1.927   2.529   3.536
  223UNL     OC  672   1.986   2.483   3.755
  224UNL     CO  673   3.241   3.042   0.184
  224UNL     OC  674   3.325   3.014   0.109
  224UNL     OC  675   3.157   3.070   0.259
  225UNL     CO  676   1.747   1.558   2.045
  225UNL     OC  677   1.831   1.621   1.995
  225UNL     OC  678   1.663   1.495   2.094
  226UNL     CO  679   2.890   0.168   3.876
  226UNL     OC  680   2.859   0.235   3.965
  226UNL     OC  681   2.922   0.101   3.786
  227UNL     CO  682   4.567   0.860   1.134
  227UNL     OC  683   4.586   0.863   1.020
  227UNL     OC  684   4.548   0.857   1.249
  228UNL     CO  685   4.131   4.367   4.138
  228UNL     OC  686   4.126   4.337   4.250
  228UNL     OC  687   4.135   4.396   4.026
  229UNL     CO  688   2.689   2.428   2.676
  229UNL     OC  689   2.579   2.417   2.712
  229UNL     OC  690   2.799   2.440   2.640
  230UNL     CO  691   2.329   0.300   1.221
  230UNL     OC  692   2.335   0.362   1.319
  230UNL     OC  693   2.322   0.238   1.123
  231UNL     CO  694   4.111   3.956   3.082
  231UNL     OC  695   4.113   3.887   3.176
  231UNL     OC  696   4.108   4.024   2.988
  232UNL     CO  697   3.255   4.700   2.638
  232UNL     OC  698   3.158   4.702   2.574
  232UNL     OC  699   3.352   4.699   2.702
  233UNL     CO  700   1.706   4.908   2.221
  233UNL     OC  701   1.662   5.001   2.167
  233UNL     OC  702   1.750   4.816   2.275
  234UNL     CO  703   2.975   2.029   3.752
  234UNL     OC  704   2.930   2.130   3.787
  234UNL     OC  705   3.020   1.928   3.716
  235UNL     CO  706   4.839   1.703   1.716
  235UNL     OC  707   4.888   1.598   1.707
  235UNL     OC  708   4.790   1.807   1.725
  236UNL     CO  709   3.835   3.754   0.191
  236UNL     OC  710   3.820   3.769   0.305
  236UNL     OC  711   3.850   3.739   0.077
  237UNL     CO  712   1.265   0.692   1.189
  237UNL     OC  713   1.229   0.802   1.187
  237UNL     OC  714   1.300   0.581   1.191
  238UNL     CO  715   1.980   4.966   4.501
  238UNL     OC  716   1.986   5.057   4.573
  238UNL     OC  717   1.974   4.876   4.429
  239UNL     CO  718   0.825   2.810   2.095
  239UNL     OC  719   0.842   2.824   2.209
  239UNL     OC  720   0.808   2.796   1.981
  240UNL     CO  721   0.863   0.008   1.079
  240UNL     OC  722   0.814   0.003   1.184
  240UNL     OC  723   0.913   0.013   0.974
  241UNL     CO  724   3.686   2.708   2.767
  241UNL     OC  725   3.610   2.765   2.833
  241UNL     OC  726   3.762   2.651   2.701
  242UNL     CO  727   3.740   1.764   3.654
  242UNL     OC  728   3.689   1.732   3.753
  242UNL     OC  729   3.791   1.796   3.555
  243UNL     CO  730   3.822   1.780   0.831
  243UNL     OC  731   3.859   1.788   0.941
  243UNL     OC  732   3.786   1.773   0.721
  244UNL     CO  733   1.201   2.569   1.429
  244UNL     OC  734   1.220   2.676   1.389
  244UNL     OC  735   1.183   2.461   1.470
  245UNL     CO  736   4.909   1.167   4.525
  245UNL     OC  737   4.882   1.166   4.412
  245UNL     OC  738   4.936   1.169   4.638
  246UNL     CO  739   4.008   4.398   0.303
  246UNL     OC  740   4.051   4.505   0.292
  246UNL     OC  741   3.965   4.291   0.314
  247UNL     CO  742   1.396   0.007   0.128
  247UNL     OC  743   1.439   0.092   0.196
  247UNL     OC  744   1.354  -0.077   0.061
  248UNL     CO  745   2.222   2.046   0.616
  248UNL     OC  746   2.244   2.115   0.526
  248UNL     OC  747   2.199   1.976   0.706
  249UNL     CO  748   4.086   0.829   4.437
  249UNL     OC  749   4.110   0.801   4.547
  249UNL     OC  750   4.062   0.856   4.327
  250UNL     CO  751   2.863   3.676   4.770
  250UNL     OC  752   2.851   3.664   4.885
  250UNL     OC  753   2.875   3.689   4.656
  251UNL     CO  754   4.579   0.065   4.873
  251UNL     OC  755   4.485   0.058   4.806
  251UNL     OC  756   4.673   0.072   4.940
  252UNL     CO  757   3.693   2.253   2.284
  252UNL     OC  758   3.606   2.199   2.230
  252UNL     OC  759   3.780   2.307   2.338
  253UNL     CO  760   2.450   3.752   4.587
  253UNL     OC  761   2.527   3.676   4.546
  253UNL     OC  762   2.372   3.828   4.628
  254UNL     CO  763   3.157   1.961   1.431
  254UNL     OC  764   3.263   2.004   1.412
  254UNL     OC  765   3.051   1.919   1.449
  255UNL     CO  766   0.018   4.976   4.167
  255UNL     OC  767   0.132   4.962   4.187
  255UNL     OC  768  -0.095   4.989   4.146
  256UNL     CO  769   2.844   0.229   1.344
  256UNL     OC  770   2.798   0.227   1.237
  256UNL     OC  771   2.890   0.232   1.451
  257UNL     CO  772   2.440   2.092   4.433
  257UNL     OC  773   2.491   2.140   4.341
  257UNL     OC  774   2.388   2.044   4.526
  258UNL     CO  775   3.287   2.368   0.306
  258UNL     OC  776   3.397   2.401   0.284
  258UNL     OC  777   3.178   2.336   0.327
  259UNL     CO  778   2.414   1.894   2.781
  259UNL     OC  779   2.361   1.792   2.793
  259UNL     OC  780   2.467   1.997   2.768
  260UNL     CO  781   1.785   4.033   2.352
  260UNL     OC  782   1.780   4.035   2.468
  260UNL     OC  783   1.790   4.031   2.236
  261UNL     CO  784   1.256   1.358   0.871
  261UNL     OC  785   1.161   1.363   0.937
  261UNL     OC  786   1.351   1.353   0.804
  262UNL     CO  787   4.186   4.990   0.948
  262UNL     OC  788   4.148   4.922   0.862
  262UNL     OC  789   4.224   5.058   1.034
  263UNL     CO  790   0.653   2.617   1.405
  263UNL     OC  791   0.668   2.502   1.399
  263UNL     OC  792   0.638   2.732   1.411
  264UNL     CO  793   4.376   2.137   3.360
  264UNL     OC  794   4.416   2.199   3.271
  264UNL     OC  795   4.337   2.075   3.450
  265UNL     CO  796   3.137   3.489   0.213
  265UNL     OC  797   3.131   3.469   0.327
  265UNL     OC  798   3.142   3.509   0.099
  266UNL     CO  799   0.577   1.523   2.185
  266UNL     OC  800   0.487   1.458   2.152
  266UNL     OC  801   0.667   1.588   2.218
  267UNL     CO  802   0.499   0.128   3.228
  267UNL     OC  803   0.491   0.082   3.122
  267UNL     OC  804   0.507   0.174   3.334
  268UNL     CO  805   2.086   0.013   0.623
  268UNL     OC  806   2.116   0.012   0.735
  268UNL     OC  807   2.056   0.014   0.511
  269UNL     CO  808   4.963   4.323   1.911
  269UNL     OC  809   4.872   4.282   1.851
  269UNL     OC  810   5.054   4.363   1.970
  270UNL     CO  811   4.897   1.281   1.488
  270UNL     OC  812   4.817   1.269   1.405
  270UNL     OC  813   4.976   1.293   1.572
  271UNL     CO  814   1.895   4.578   4.301
  271UNL     OC  815   1.902   4.605   4.188
  271UNL     OC  816   1.887   4.552   4.413
  272UNL     CO  817   4.061   2.923   3.076
  272UNL     OC  818   4.069   2.962   3.185
  272UNL     OC  819   4.053   2.884   2.968
  273UNL     CO  820   0.908   1.784   3.064
  273UNL     OC  821   0.948   1.675   3.058
  273UNL     OC  822   0.868   1.893   3.069
  274UNL     CO  823   1.264   3.700   4.469
  274UNL     OC  824   1.161   3.706   4.522
  274UNL     OC  825   1.367   3.694   4.417
  275UNL     CO  826   2.090   1.862   3.518
  275UNL     OC  827   2.091   1.858   3.403
  275UNL     OC  828   2.089   1.867   3.634
  276UNL     CO  829   3.246   0.208   3.096
  276UNL     OC  830   3.312   0.186   3.003
  276UNL     OC  831   3.181   0.230   3.190
  277UNL     CO  832   1.893   1.966   4.017
  277UNL     OC  833   1.904   1.926   4.126
  277UNL     OC  834   1.882   2.005   3.909
  278UNL     CO  835   0.297   4.511   3.299
  278UNL     OC  836   0.259   4.481   3.405
  278UNL     OC  837   0.334   4.540   3.194
  279UNL     CO  838   3.739   4.233   3.457
  279UNL     OC  839   3.840   4.201   3.408
  279UNL     OC  840   3.639   4.265   3.506
  280UNL     CO  841   1.206   4.356   1.916
  280UNL     OC  842   1.266   4.446   1.876
  280UNL     OC  843   1.145   4.266   1.957
  281UNL     CO  844   4.950   0.358   2.875
  281UNL     OC  845   4.964   0.269   2.948
  281UNL     OC  846   4.937   0.446   2.801
  282UNL     CO  847   4.942   3.851   3.799
  282UNL     OC  848   4.964   3.942   3.868
  282UNL     OC  849   4.919   3.761   3.729
  283UNL     CO  850   3.515   4.300   2.299
  283UNL     OC  851   3.609   4.332   2.240
  283UNL     OC  852   3.421   4.268   2.359
  284UNL     CO  853   2.907   0.981   4.912
  284UNL     OC  854   2.971   1.048   4.982
  284UNL     OC  855   2.842   0.914   4.842
  285UNL     CO  856   4.493   2.916   1.216
  285UNL     OC  857   4.523   2.977   1.310
  285UNL     OC  858   4.463   2.855   1.122
  286UNL     CO  859   0.333   4.608   1.774
  286UNL     OC  860   0.405   4.517   1.780
  286UNL     OC  861   0.261   4.698   1.769
  287UNL     CO  862   4.928   4.019   3.274
  287UNL     OC  863   4.972   4.049   3.172
  287UNL     OC  864   4.883   3.988   3.377
  288UNL     CO  865   2.871   3.885   4.682
  288UNL     OC  866   2.946   3.853   4.599
  288UNL     OC  867   2.796   3.917   4.765
  289UNL     CO  868   4.844   0.737   4.103
  289UNL     OC  869   4.889   0.794   4.193
  289UNL     OC  870   4.799   0.680   4.013
  290UNL     CO  871   0.504   1.988   3.259
  290UNL     OC  872   0.495   1.972   3.145
  290UNL     OC  873   0.514   2.004   3.374
  291UNL     CO  874   3.337   1.389   4.267
  291UNL     OC  875   3.257   1.324   4.214
  291UNL     OC  876   3.417   1.454   4.321
  292UNL     CO  877   3.801   3.023   4.193
  292UNL     OC  878   3.802   3.078   4.091
  292UNL     OC  879   3.800   2.969   4.295
  293UNL     CO  880   3.373   1.580   2.107
  293UNL     OC  881   3.378   1.655   2.019
  293UNL     OC  882   3.368   1.505   2.195
  294UNL     CO  883   4.512   4.179   2.995
  294UNL     OC  884   4.523   4.080   3.054
  294UNL     OC  885   4.500   4.278   2.935
  295UNL     CO  886   3.333   4.224   2.703
  295UNL     OC  887   3.239   4.280   2.740
  295UNL     OC  888   3.427   4.168   2.665
  296UNL     CO  889   2.534   0.690   3.227
  296UNL     OC  890   2.507   0.581   3.196
  296UNL     OC  891   2.561   0.798   3.257
  297UNL     CO  892   1.704   3.768   3.295
  297UNL     OC  893   1.784   3.687   3.318
  297UNL     OC  894   1.624   3.848   3.272
  298UNL     CO  895   4.057   4.254   1.090
  298UNL     OC  896   4.057   4.139   1.077
  298UNL     OC  897   4.057   4.370   1.102
  299UNL     CO  898   3.198   1.755   4.106
  299UNL     OC  899   3.303   1.731   4.064
  299UNL     OC  900   3.092   1.780   4.149
  300UNL     CO  901   4.053   0.889   4.830
  300UNL     OC  902   3.944   0.885   4.870
  300UNL     OC  903   4.162   0.892   4.790
  301UNL     CO  904   4.245   1.466   3.086
  301UNL     OC  905   4.182   1.560   3.110
  301UNL     OC  906   4.309   1.372   3.063
  302UNL     CO  907   2.586   0.965   2.146
  302UNL     OC  908   2.508   1.050   2.163
  302UNL     OC  909   2.664   0.881   2.129
  303UNL     CO  910   1.123   0.175   4.471
  303UNL     OC  911   1.058   0.119   4.393
  303UNL     OC  912   1.189   0.232   4.549
  304UNL     CO  913   1.943   2.467   4.502
  304UNL     OC  914   1.993   2.476   4.398
  304UNL     OC  915   1.893   2.458   4.606
  305UNL     CO  916   3.442   4.543   1.990
  305UNL     OC  917   3.437   4.614   2.081
  305UNL     OC  918   3.447   4.472   1.898
  306UNL     CO  919   4.679   0.205   2.249
  306UNL     OC  920   4.600   0.238   2.327
  306UNL     OC  921   4.759   0.172   2.171
  307UNL     CO  922   4.802   4.249   4.515
  307UNL     OC  923   4.808   4.363   4.493
  307UNL     OC  924   4.796   4.135   4.537
  308UNL     CO  925   4.345   3.199   4.957
  308UNL     OC  926   4.357   3.154   5.064
  308UNL     OC  927   4.333   3.244   4.851
  309UNL     CO  928   2.260   0.024   1.476
  309UNL     OC  929   2.301   0.068   1.576
  309UNL     OC  930   2.220  -0.019   1.377
  310UNL     CO  931   3.589   1.899   1.839
  310UNL     OC  932   3.545   1.926   1.942
  310UNL     OC  933   3.634   1.871   1.735
  311UNL     CO  934   0.131   3.066   1.663
  311UNL     OC  935   0.074   3.053   1.563
  311UNL     OC  936   0.188   3.080   1.763
  312UNL     CO  937   0.622   1.847   0.250
  312UNL     OC  938   0.646   1.798   0.353
  312UNL     OC  939   0.597   1.896   0.148
  313UNL     CO  940   3.130   1.221   0.326
  313UNL     OC  941   3.131   1.248   0.213
  313UNL     OC  942   3.128   1.195   0.439
  314UNL     CO  943   4.506   2.567   4.587
  314UNL     OC  944   4.601   2.501   4.574
  314UNL     OC  945   4.411   2.632   4.600
  315UNL     CO  946   2.839   3.197   0.122
  315UNL     OC  947   2.731   3.155   0.135
  315UNL     OC  948   2.946   3.239   0.109
  316UNL     CO  949   1.841   3.868   1.494
  316UNL     OC  950   1.867   3.797   1.406
  316UNL     OC  951   1.815   3.939   1.582
  317UNL     CO  952   3.206   1.008   3.239
  317UNL     OC  953   3.211   0.989   3.125
  317UNL     OC  954   3.201   1.027   3.354
  318UNL     CO  955   0.798   3.348   1.478
  318UNL     OC  956   0.734   3.444   1.476
  318UNL     OC  957   0.862   3.251   1.481
  319UNL     CO  958   4.794   2.657   0.680
  319UNL     OC  959   4.809   2.703   0.574
  319UNL     OC  960   4.779   2.611   0.785
  320UNL     CO  961   3.309   3.509   1.704
  320UNL     OC  962   3.304   3.509   1.820
  320UNL     OC  963   3.313   3.508   1.588
  321UNL     CO  964   3.002   1.327   2.013
  321UNL     OC  965   2.918   1.249   2.029
  321UNL     OC  966   3.086   1.405   1.996
  322UNL     CO  967   2.007   2.593   1.231
  322UNL     OC  968   2.015   2.560   1.120
  322UNL     OC  969   2.000   2.625   1.343
  323UNL     CO  970   4.903   2.111   3.757
  323UNL     OC  971   4.899   2.102   3.873
  323UNL     OC  972   4.907   2.121   3.642
  324UNL     CO  973   2.209   4.320   1.134
  324UNL     OC  974   2.218   4.349   1.246
  324UNL     OC  975   2.201   4.291   1.023
  325UNL     CO  976   4.633   4.976   2.005
  325UNL     OC  977   4.590   5.021   2.103
  325UNL     OC  978   4.676   4.931   1.907
  326UNL     CO  979   1.750   4.390   3.236
  326UNL     OC  980   1.685   4.397   3.141
  326UNL     OC  981   1.815   4.382   3.332
  327UNL     CO  982   2.311   1.378   1.287
  327UNL     OC  983   2.342   1.405   1.396
  327UNL     OC  984   2.280   1.350   1.179
  328UNL     CO  985   1.886   1.708   2.386
  328UNL     OC  986   1.814   1.738   2.472
  328UNL     OC  987   1.957   1.679   2.299
  329UNL     CO  988   2.791   1.480   0.618
  329UNL     OC  989   2.824   1.368   0.614
  329UNL     OC  990   2.758   1.591   0.621
  330UNL     CO  991   4.345   2.366   3.939
  330UNL     OC  992   4.345   2.381   3.824
  330UNL     OC  993   4.344   2.351   4.054
  331UNL     CO  994   1.600   2.602   1.410
  331UNL     OC  995   1.526   2.517   1.382
  331UNL     OC  996   1.673   2.687   1.438
  332UNL     CO  997   0.897   3.399   1.892
  332UNL     OC  998   0.897   3.284   1.907
  332UNL     OC  999   0.896   3.514   1.877
  333UNL     CO 1000   0.367   2.767   4.956
  333UNL     OC 1001   0.392   2.823   5.054
  333UNL     OC 1002   0.341   2.710   4.858
  334UNL     CO 1003   1.087   3.664   1.850
  334UNL     OC 1004   1.064   3.643   1.738
  334UNL     OC 1005   1.111   3.684   1.962
  335UNL     CO 1006   3.266   1.713   0.247
  335UNL     OC 1007   3.344   1.749   0.325
  335UNL     OC 1008   3.187   1.677   0.170
  336UNL     CO 1009   3.651   1.913   3.216
  336UNL     OC 1010   3.651   1.915   3.332
  336UNL     OC 1011   3.651   1.910   3.100
  337UNL     CO 1012   0.340   1.240   4.784
  337UNL     OC 1013   0.438   1.239   4.847
  337UNL     OC 1014   0.243   1.242   4.721
  338UNL     CO 1015   2.182   2.712   1.368
  338UNL     OC 1016   2.204   2.633   1.285
  338UNL     OC 1017   2.159   2.791   1.450
  339UNL     CO 1018   1.391   4.021   3.892
  339UNL     OC 1019   1.295   4.086   3.892
  339UNL     OC 1020   1.487   3.957   3.892
  340UNL     CO 1021   2.616   2.844   2.025
  340UNL     OC 1022   2.616   2.844   1.909
  340UNL     OC 1023   2.616   2.844   2.141
  341UNL     CO 1024   4.536   2.850   2.890
  341UNL     OC 1025   4.427   2.887   2.879
  341UNL     OC 1026   4.646   2.812   2.900
  342UNL     CO 1027   0.859   0.066   2.018
  342UNL     OC 1028   0.905   0.090   2.122
  342UNL     OC 1029   0.813   0.042   1.914
  343UNL     CO 1030   3.230   1.833   3.823
  343UNL     OC 1031   3.196   1.780   3.920
  343UNL     OC 1032   3.264   1.886   3.725
  344UNL     CO 1033   4.656   0.617   1.563
  344UNL     OC 1034   4.677   0.631   1.450
  344UNL     OC 1035   4.635   0.603   1.677
  345UNL     CO 1036   2.853   2.745   2.372
  345UNL     OC 1037   2.858   2.728   2.487
  345UNL     OC 1038   2.847   2.762   2.257
  346UNL     CO 1039   1.037   2.346   0.716
  346UNL     OC 1040   1.035   2.346   0.832
  346UNL     OC 1041   1.039   2.347   0.600
  347UNL     CO 1042   2.391   1.282   4.507
  347UNL     OC 1043   2.418   1.268   4.395
  347UNL     OC 1044   2.365   1.296   4.619
  348UNL     CO 1045   3.490   1.927   4.538
  348UNL     OC 1046   3.551   1.858   4.609
  348UNL     OC 1047   3.429   1.996   4.468
  349UNL     CO 1048   0.719   3.960   4.612
  349UNL     OC 1049   0.802   4.032   4.575
  349UNL     OC 1050   0.635   3.888   4.648
  350UNL     CO 1051   0.873   2.761   3.565
  350UNL     OC 1052   0.836   2.804   3.667
  350UNL     OC 1053   0.910   2.718   3.464
  351UNL     CO 1054   0.277   2.634   0.938
  351UNL     OC 1055   0.162   2.637   0.947
  351UNL     OC 1056   0.393   2.631   0.929
  352UNL     CO 1057   3.141   4.712   4.340
  352UNL     OC 1058   3.135   4.606   4.387
  352UNL     OC 1059   3.146   4.818   4.293
  353UNL     CO 1060   2.549   0.849   2.822
  353UNL     OC 1061   2.583   0.780   2.909
  353UNL     OC 1062   2.516   0.917   2.734
  354UNL     CO 1063   2.744   1.390   3.046
  354UNL     OC 1064   2.664   1.325   2.992
  354UNL     OC 1065   2.824   1.454   3.099
  355UNL     CO 1066   1.557   3.976   0.618
  355UNL     OC 1067   1.560   3.974   0.734
  355UNL     OC 1068   1.555   3.978   0.502
  356UNL     CO 1069   4.148   1.123   2.849
  356UNL     OC 1070   4.201   1.087   2.753
  356UNL     OC 1071   4.096   1.160   2.946
  357UNL     CO 1072   4.282   3.257   4.388
  357UNL     OC 1073   4.296   3.206   4.285
  357UNL     OC 1074   4.267   3.307   4.492
  358UNL     CO 1075   2.697   3.845   1.775
  358UNL     OC 1076   2.649   3.806   1.677
  358UNL     OC 1077   2.745   3.884   1.874
  359UNL     CO 1078   3.673   1.144   1.761
  359UNL     OC 1079   3.614   1.044   1.756
  359UNL     OC 1080   3.732   1.244   1.765
  360UNL     CO 1081   3.267   4.774   3.304
  360UNL     OC 1082   3.286   4.755   3.191
  360UNL     OC 1083   3.248   4.794   3.416
  361UNL     CO 1084   2.276   2.351   2.005
  361UNL     OC 1085   2.234   2.250   2.043
  361UNL     OC 1086   2.318   2.453   1.967
  362UNL     CO 1087   2.086   3.339   2.928
  362UNL     OC 1088   2.099   3.309   3.039
  362UNL     OC 1089   2.072   3.370   2.816
  363UNL     CO 1090   1.329   3.588   0.877
  363UNL     OC 1091   1.408   3.546   0.804
  363UNL     OC 1092   1.249   3.629   0.951
  364UNL     CO 1093   2.679   0.217   4.492
  364UNL     OC 1094   2.725   0.233   4.598
  364UNL     OC 1095   2.634   0.202   4.386
  365UNL     CO 1096   2.289   3.978   1.206
  365UNL     OC 1097   2.210   4.063   1.220
  365UNL     OC 1098   2.367   3.894   1.192
  366UNL     CO 1099   0.326   1.822   3.170
  366UNL     OC 1100   0.386   1.803   3.073
  366UNL     OC 1101   0.266   1.842   3.268
  367UNL     CO 1102   0.245   2.474   2.131
  367UNL     OC 1103   0.184   2.504   2.226
  367UNL     OC 1104   0.306   2.445   2.037
  368UNL     CO 1105   2.199   0.432   3.205
  368UNL     OC 1106   2.144   0.519   3.259
  368UNL     OC 1107   2.255   0.346   3.150
  369UNL     CO 1108   0.614   0.965   4.791
  369UNL     OC 1109   0.667   0.925   4.697
  369UNL     OC 1110   0.560   1.006   4.886
  370UNL     CO 1111   4.938   1.197   2.903
  370UNL     OC 1112   4.949   1.250   3.006
  370UNL     OC 1113   4.928   1.145   2.800
  371UNL     CO 1114   1.428   2.474   4.976
  371UNL     OC 1115   1.340   2.438   4.909
  371UNL     OC 1116   1.515   2.509   5.044
  372UNL     CO 1117   0.327   3.157   2.057
  372UNL     OC 1118   0.319   3.119   2.166
  372UNL     OC 1119   0.335   3.195   1.948
  373UNL     CO 1120   3.577   0.401   3.879
  373UNL     OC 1121   3.548   0.437   3.986
  373UNL     OC 1122   3.607   0.365   3.773
  374UNL     CO 1123   4.395   4.304   4.791
  374UNL     OC 1124   4.298   4.351   4.748
  374UNL     OC 1125   4.493   4.258   4.833
  375UNL     CO 1126   1.441   3.405   1.928
  375UNL     OC 1127   1.342   3.457   1.896
  375UNL     OC 1128   1.540   3.353   1.959
  376UNL     CO 1129   3.592   4.165   3.985
  376UNL     OC 1130   3.607   4.134   4.096
  376UNL     OC 1131   3.578   4.197   3.875
  377UNL     CO 1132   1.614   2.289   3.010
  377UNL     OC 1133   1.652   2.378   2.947
  377UNL     OC 1134   1.575   2.201   3.074
  378UNL     CO 1135   1.406   1.820   3.613
  378UNL     OC 1136   1.379   1.891   3.701
  378UNL     OC 1137   1.433   1.749   3.526
  379UNL     CO 1138   1.808   3.690   4.928
  379UNL     OC 1139   1.844   3.739   4.829
  379UNL     OC 1140   1.771   3.641   5.026
  380UNL     CO 1141   1.088   3.842   0.451
  380UNL     OC 1142   1.070   3.814   0.340
  380UNL     OC 1143   1.106   3.870   0.562
  381UNL     CO 1144   2.577   2.069   4.185
  381UNL     OC 1145   2.598   1.979   4.254
  381UNL     OC 1146   2.555   2.159   4.115
  382UNL     CO 1147   3.072   0.093   0.078
  382UNL     OC 1148   3.062   0.109   0.192
  382UNL     OC 1149   3.082   0.076  -0.037
  383UNL     CO 1150   0.373   3.698   4.752
  383UNL     OC 1151   0.334   3.748   4.849
  383UNL     OC 1152   0.412   3.648   4.655
  384UNL     CO 1153   1.439   2.813   4.259
  384UNL     OC 1154   1.429   2.708   4.308
  384UNL     OC 1155   1.450   2.917   4.209
  385UNL     CO 1156   4.073   0.243   0.343
  385UNL     OC 1157   4.037   0.222   0.235
  385UNL     OC 1158   4.109   0.263   0.452
  386UNL     CO 1159   0.436   1.259   1.144
  386UNL     OC 1160   0.388   1.221   1.242
  386UNL     OC 1161   0.484   1.297   1.045
  387UNL     CO 1162   0.695   4.477   1.655
  387UNL     OC 1163   0.750   4.479   1.757
  387UNL     OC 1164   0.640   4.475   1.553
  388UNL     CO 1165   2.387   2.295   3.106
  388UNL     OC 1166   2.436   2.293   3.211
  388UNL     OC 1167   2.338   2.296   3.001
  389UNL     CO 1168   2.807   1.879   4.353
  389UNL     OC 1169   2.779   1.831   4.251
  389UNL     OC 1170   2.835   1.927   4.455
  390UNL     CO 1171   0.091   2.489   3.638
  390UNL     OC 1172   0.091   2.399   3.711
  390UNL     OC 1173   0.090   2.580   3.566
  391UNL     CO 1174   4.667   2.754   4.770
  391UNL     OC 1175   4.656   2.865   4.738
  391UNL     OC 1176   4.678   2.643   4.802
  392UNL     CO 1177   1.558   3.205   3.630
  392UNL     OC 1178   1.649   3.232   3.697
  392UNL     OC 1179   1.467   3.179   3.563
  393UNL     CO 1180   1.951   3.495   3.190
  393UNL     OC 1181   1.909   3.486   3.298
  393UNL     OC 1182   1.993   3.504   3.082
  394UNL     CO 1183   0.067   3.975   0.923
  394UNL     OC 1184   0.082   3.949   1.035
  394UNL     OC 1185   0.052   4.000   0.811
  395UNL     CO 1186   2.713   3.538   1.588
  395UNL     OC 1187   2.639   3.455   1.617
  395UNL     OC 1188   2.788   3.622   1.559
  396UNL     CO 1189   4.890   4.974   3.492
  396UNL     OC 1190   4.941   4.915   3.407
  396UNL     OC 1191   4.839   5.033   3.578
  397UNL     CO 1192   4.016   3.661   3.651
  397UNL     OC 1193   4.056   3.552   3.653
  397UNL     OC 1194   3.977   3.770   3.648
  398UNL     CO 1195   4.247   0.112   4.141
  398UNL     OC 1196   4.319   0.173   4.209
  398UNL     OC 1197   4.176   0.051   4.073
  399UNL     CO 1198   3.017   0.732   0.519
  399UNL     OC 1199   3.118   0.744   0.463
  399UNL     OC 1200   2.916   0.720   0.575
  400UNL     CO 1201   1.929   3.234   1.881
  400UNL     OC 1202   1.902   3.287   1.981
  400UNL     OC 1203   1.957   3.180   1.782
  401UNL     CO 1204   2.413   4.575   4.058
  401UNL     OC 1205   2.518   4.613   4.026
  401UNL     OC 1206   2.308   4.538   4.090
  402UNL     CO 1207   0.922   0.782   4.523
  402UNL     OC 1208   0.921   0.760   4.409
  402UNL     OC 1209   0.922   0.804   4.637
  403UNL     CO 1210   0.162   3.453   3.284
  403UNL     OC 1211   0.230   3.533   3.234
  403UNL     OC 1212   0.093   3.374   3.333
  404UNL     CO 1213   2.795   3.031   4.182
  404UNL     OC 1214   2.898   2.994   4.218
  404UNL     OC 1215   2.691   3.068   4.145
  405UNL     CO 1216   1.601   3.837   2.823
  405UNL     OC 1217   1.611   3.914   2.909
  405UNL     OC 1218   1.591   3.761   2.736
  406UNL     CO 1219   4.158   0.486   4.105
  406UNL     OC 1220   4.198   0.457   4.000
  406UNL     OC 1221   4.119   0.516   4.210
  407UNL     CO 1222   2.225   2.455   0.483
  407UNL     OC 1223   2.204   2.465   0.370
  407UNL     OC 1224   2.246   2.445   0.597
  408UNL     CO 1225   1.922   1.535   3.502
  408UNL     OC 1226   1.913   1.542   3.617
  408UNL     OC 1227   1.932   1.528   3.387
  409UNL     CO 1228   3.310   0.108   4.453
  409UNL     OC 1229   3.310   0.129   4.340
  409UNL     OC 1230   3.310   0.086   4.567
  410UNL     CO 1231   3.366   0.680   0.945
  410UNL     OC 1232   3.280   0.701   1.020
  410UNL     OC 1233   3.452   0.659   0.871
  411UNL     CO 1234   0.819   4.974   4.197
  411UNL     OC 1235   0.756   4.878   4.210
  411UNL     OC 1236   0.883   5.071   4.184
  412UNL     CO 1237   0.211   0.746   3.823
  412UNL     OC 1238   0.104   0.764   3.781
  412UNL     OC 1239   0.318   0.729   3.866
  413UNL     CO 1240   0.224   4.469   0.447
  413UNL     OC 1241   0.229   4.411   0.347
  413UNL     OC 1242   0.218   4.527   0.547
  414UNL     CO 1243   1.308   0.601   4.463
  414UNL     OC 1244   1.305   0.597   4.579
  414UNL     OC 1245   1.311   0.605   4.347
  415UNL     CO 1246   4.147   2.434   0.725
  415UNL     OC 1247   4.125   2.448   0.838
  415UNL     OC 1248   4.169   2.420   0.612
  416UNL     CO 1249   0.904   1.198   2.101
  416UNL     OC 1250   0.898   1.193   1.986
  416UNL     OC 1251   0.909   1.203   2.217
  417UNL     CO 1252   4.381   4.624   0.947
  417UNL     OC 1253   4.403   4.578   1.051
  417UNL     OC 1254   4.359   4.670   0.842
  418UNL     CO 1255   4.365   1.327   0.326
  418UNL     OC 1256   4.340   1.378   0.225
  418UNL     OC 1257   4.389   1.276   0.427
  419UNL     CO 1258   1.839   0.407   2.543
  419UNL     OC 1259   1.855   0.300   2.586
  419UNL     OC 1260   1.822   0.513   2.500
  420UNL     CO 1261   0.040   1.860   1.305
  420UNL     OC 1262   0.073   1.841   1.414
  420UNL     OC 1263   0.007   1.879   1.195
  421UNL     CO 1264   0.090   3.612   1.193
  421UNL     OC 1265   0.179   3.652   1.132
  421UNL     OC 1266  -0.000   3.571   1.255
  422UNL     CO 1267   4.311   3.983   0.400
  422UNL     OC 1268   4.378   4.010   0.491
  422UNL     OC 1269   4.244   3.956   0.309
  423UNL     CO 1270   0.487   2.046   4.834
  423UNL     OC 1271   0.513   1.934   4.816
  423UNL     OC 1272   0.461   2.157   4.853
  424UNL     CO 1273   4.827   0.094   1.225
  424UNL     OC 1274   4.868   0.131   1.328
  424UNL     OC 1275   4.786   0.057   1.123
  425UNL     CO 1276   1.955   4.931   2.327
  425UNL     OC 1277   1.850   4.979   2.342
  425UNL     OC 1278   2.059   4.882   2.312
  426UNL     CO 1279   3.513   2.606   1.284
  426UNL     OC 1280   3.513   2.607   1.168
  426UNL     OC 1281   3.512   2.605   1.400
  427UNL     CO 1282   4.246   3.438   4.183
  427UNL     OC 1283   4.300   3.475   4.279
  427UNL     OC 1284   4.193   3.402   4.087
  428UNL     CO 1285   0.296   2.117   3.459
  428UNL     OC 1286   0.302   2.084   3.570
  428UNL     OC 1287   0.289   2.150   3.348
  429UNL     CO 1288   4.913   2.390   0.480
  429UNL     OC 1289   4.954   2.406   0.587
  429UNL     OC 1290   4.872   2.374   0.373
  430UNL     CO 1291   4.256   3.680   3.798
  430UNL     OC 1292   4.290   3.606   3.715
  430UNL     OC 1293   4.221   3.753   3.880
  431UNL     CO 1294   1.769   1.759   1.581
  431UNL     OC 1295   1.771   1.739   1.467
  431UNL     OC 1296   1.768   1.780   1.695
  432UNL     CO 1297   3.264   4.131   4.813
  432UNL     OC 1298   3.325   4.213   4.758
  432UNL     OC 1299   3.203   4.050   4.869
  433UNL     CO 1300   0.585   3.508   0.453
  433UNL     OC 1301   0.567   3.539   0.564
  433UNL     OC 1302   0.603   3.477   0.343
  434UNL     CO 1303   0.858   2.352   0.188
  434UNL     OC 1304   0.750   2.395   0.193
  434UNL     OC 1305   0.966   2.309   0.182
  435UNL     CO 1306   1.664   2.655   2.846
  435UNL     OC 1307   1.746   2.727   2.808
  435UNL     OC 1308   1.581   2.584   2.885
  436UNL     CO 1309   3.448   3.217   2.314
  436UNL     OC 1310   3.405   3.280   2.401
  436UNL     OC 1311   3.492   3.153   2.227
  437UNL     CO 1312   2.340   4.403   0.194
  437UNL     OC 1313   2.264   4.333   0.140
  437UNL     OC 1314   2.416   4.472   0.247
  438UNL     CO 1315   4.051   3.243   3.243
  438UNL     OC 1316   4.158   3.220   3.205
  438UNL     OC 1317   3.943   3.266   3.281
  439UNL     CO 1318   2.604   1.370   4.711
  439UNL     OC 1319   2.541   1.291   4.769
  439UNL     OC 1320   2.666   1.449   4.654
  440UNL     CO 1321   2.423   4.686   3.347
  440UNL     OC 1322   2.413   4.688   3.462
  440UNL     OC 1323   2.433   4.685   3.231
  441UNL     CO 1324   1.236   3.773   4.055
  441UNL     OC 1325   1.235   3.703   3.963
  441UNL     OC 1326   1.237   3.843   4.148
  442UNL     CO 1327   0.047   2.145   4.676
  442UNL     OC 1328   0.050   2.141   4.792
  442UNL     OC 1329   0.043   2.150   4.561
  443UNL     CO 1330   3.370   0.243   4.656
  443UNL     OC 1331   3.355   0.284   4.549
  443UNL     OC 1332   3.384   0.202   4.764
  444UNL     CO 1333   1.406   2.502   2.629
  444UNL     OC 1334   1.433   2.565   2.723
  444UNL     OC 1335   1.380   2.440   2.535
  445UNL     CO 1336   2.809   1.338   3.650
  445UNL     OC 1337   2.725   1.344   3.730
  445UNL     OC 1338   2.894   1.333   3.571
  446UNL     CO 1339   2.809   1.137   3.029
  446UNL     OC 1340   2.833   1.177   2.923
  446UNL     OC 1341   2.784   1.097   3.135
  447UNL     CO 1342   3.500   3.819   2.690
  447UNL     OC 1343   3.509   3.712   2.733
  447UNL     OC 1344   3.490   3.927   2.647
  448UNL     CO 1345   1.278   2.241   1.623
  448UNL     OC 1346   1.267   2.254   1.508
  448UNL     OC 1347   1.288   2.229   1.738
  449UNL     CO 1348   4.086   1.327   3.657
  449UNL     OC 1349   4.061   1.215   3.668
  449UNL     OC 1350   4.111   1.440   3.646
  450UNL     CO 1351   3.811   4.296   0.567
  450UNL     OC 1352   3.924   4.300   0.596
  450UNL     OC 1353   3.699   4.292   0.537
  451UNL     CO 1354   1.280   1.999   1.347
  451UNL     OC 1355   1.362   2.055   1.406
  451UNL     OC 1356   1.197   1.943   1.288
  452UNL     CO 1357   4.036   0.501   2.738
  452UNL     OC 1358   4.041   0.418   2.818
  452UNL     OC 1359   4.031   0.585   2.657
  453UNL     CO 1360   3.446   0.031   0.471
  453UNL     OC 1361   3.380  -0.022   0.551
  453UNL     OC 1362   3.512   0.083   0.392
  454UNL     CO 1363   2.423   0.532   0.579
  454UNL     OC 1364   2.414   0.527   0.463
  454UNL     OC 1365   2.431   0.538   0.694
  455UNL     CO 1366   1.757   3.702   1.981
  455UNL     OC 1367   1.837   3.627   2.017
  455UNL     OC 1368   1.676   3.778   1.945
  456UNL     CO 1369   3.195   1.551   0.336
  456UNL     OC 1370   3.235   1.500   0.240
  456UNL     OC 1371   3.155   1.601   0.432
  457UNL     CO 1372   0.289   3.616   3.704
  457UNL     OC 1373   0.288   3.504   3.675
  457UNL     OC 1374   0.289   3.728   3.733
  458UNL     CO 1375   3.356   3.809   1.563
  458UNL     OC 1376   3.267   3.746   1.523
  458UNL     OC 1377   3.445   3.871   1.603
  459UNL     CO 1378   0.734   3.106   0.607
  459UNL     OC 1379   0.743   3.091   0.722
  459UNL     OC 1380   0.724   3.122   0.493
  460UNL     CO 1381   3.215   0.787   2.948
  460UNL     OC 1382   3.234   0.703   3.026
  460UNL     OC 1383   3.196   0.870   2.869
  461UNL     CO 1384   2.213   1.355   0.270
  461UNL     OC 1385   2.128   1.277   0.259
  461UNL     OC 1386   2.299   1.433   0.280
  462UNL     CO 1387   0.775   2.891   1.677
  462UNL     OC 1388   0.738   2.883   1.567
  462UNL     OC 1389   0.811   2.899   1.787
  463UNL     CO 1390   2.607   0.116   1.014
  463UNL     OC 1391   2.704   0.061   0.982
  463UNL     OC 1392   2.510   0.171   1.046
  464UNL     CO 1393   4.011   2.216   0.793
  464UNL     OC 1394   4.011   2.186   0.681
  464UNL     OC 1395   4.012   2.247   0.905
  465UNL     CO 1396   1.264   1.990   2.892
  465UNL     OC 1397   1.216   1.921   2.972
  465UNL     OC 1398   1.312   2.059   2.813
  466UNL     CO 1399   1.235   4.006   1.379
  466UNL     OC 1400   1.216   3.915   1.448
  466UNL     OC 1401   1.254   4.097   1.309
  467UNL     CO 1402   3.001   2.385   3.597
  467UNL     OC 1403   3.009   2.364   3.483
  467UNL     OC 1404   2.993   2.405   3.711
  468UNL     CO 1405   3.703   0.357   2.293
  468UNL     OC 1406   3.738   0.464   2.324
  468UNL     OC 1407   3.668   0.251   2.263
  469UNL     CO 1408   3.694   0.399   0.836
  469UNL     OC 1409   3.701   0.452   0.733
  469UNL     OC 1410   3.687   0.347   0.939
  470UNL     CO 1411   0.607   2.774   2.506
  470UNL     OC 1412   0.640   2.711   2.415
  470UNL     OC 1413   0.575   2.837   2.598
  471UNL     CO 1414   4.273   1.582   4.874
  471UNL     OC 1415   4.242   1.567   4.985
  471UNL     OC 1416   4.304   1.598   4.763
  472UNL     CO 1417   4.047   3.119   0.808
  472UNL     OC 1418   4.113   3.079   0.721
  472UNL     OC 1419   3.982   3.159   0.896
  473UNL     CO 1420   4.902   3.423   2.971
  473UNL     OC 1421   4.807   3.485   2.946
  473UNL     OC 1422   4.997   3.361   2.996
  474UNL     CO 1423   1.552   0.954   1.092
  474UNL     OC 1424   1.664   0.963   1.065
  474UNL     OC 1425   1.440   0.944   1.119
  475UNL     CO 1426   2.088   1.203   0.564
  475UNL     OC 1427   1.987   1.199   0.508
  475UNL     OC 1428   2.190   1.208   0.619
  476UNL     CO 1429   3.467   3.735   2.427
  476UNL     OC 1430   3.357   3.763   2.451
  476UNL     OC 1431   3.577   3.708   2.403
  477UNL     CO 1432   0.533   2.334   1.194
  477UNL     OC 1433   0.560   2.337   1.306
  477UNL     OC 1434   0.506   2.330   1.081
  478UNL     CO 1435   1.218   1.689   4.576
  478UNL     OC 1436   1.214   1.618   4.668
  478UNL     OC 1437   1.223   1.760   4.485
  479UNL     CO 1438   1.236   3.857   2.540
  479UNL     OC 1439   1.298   3.940   2.593
  479UNL     OC 1440   1.174   3.775   2.487
  480UNL     CO 1441   3.831   0.940   3.983
  480UNL     OC 1442   3.803   1.031   3.916
  480UNL     OC 1443   3.859   0.849   4.050
  481UNL     CO 1444   4.144   2.235   2.985
  481UNL     OC 1445   4.177   2.220   2.874
  481UNL     OC 1446   4.111   2.249   3.095
  482UNL     CO 1447   4.086   4.023   4.878
  482UNL     OC 1448   4.179   4.080   4.838
  482UNL     OC 1449   3.994   3.965   4.918
  483UNL     CO 1450   1.652   0.421   4.403
  483UNL     OC 1451   1.569   0.490   4.360
  483UNL     OC 1452   1.735   0.353   4.447
  484UNL     CO 1453   4.725   2.893   2.299
  484UNL     OC 1454   4.641   2.852   2.229
  484UNL     OC 1455   4.808   2.933   2.368
  485UNL     CO 1456   0.607   2.471   0.641
  485UNL     OC 1457   0.501   2.456   0.685
  485UNL     OC 1458   0.713   2.486   0.597
  486UNL     CO 1459   4.198   1.776   1.176
  486UNL     OC 1460   4.273   1.708   1.120
  486UNL     OC 1461   4.123   1.844   1.233
  487UNL     CO 1462   2.647   0.239   0.064
  487UNL     OC 1463   2.615   0.157   0.139
  487UNL     OC 1464   2.679   0.321  -0.011
  488UNL     CO 1465   0.467   3.451   1.524
  488UNL     OC 1466   0.497   3.366   1.597
  488UNL     OC 1467   0.436   3.536   1.451
  489UNL     CO 1468   2.465   1.096   0.253
  489UNL     OC 1469   2.469   1.059   0.363
  489UNL     OC 1470   2.461   1.132   0.143
  490UNL     CO 1471   0.626   3.112   2.286
  490UNL     OC 1472   0.674   3.080   2.386
  490UNL     OC 1473   0.578   3.143   2.185
  491UNL     CO 1474   3.426   1.628   1.295
  491UNL     OC 1475   3.446   1.542   1.220
  491UNL     OC 1476   3.406   1.714   1.370
  492UNL     CO 1477   4.580   0.301   2.901
  492UNL     OC 1478   4.580   0.331   2.789
  492UNL     OC 1479   4.581   0.271   3.013
  493UNL     CO 1480   0.627   0.490   4.360
  493UNL     OC 1481   0.522   0.508   4.314
  493UNL     OC 1482   0.732   0.473   4.406
  494UNL     CO 1483   3.361   0.110   1.742
  494UNL     OC 1484   3.373   0.086   1.855
  494UNL     OC 1485   3.350   0.134   1.629
  495UNL     CO 1486   3.851   3.734   4.074
  495UNL     OC 1487   3.747   3.703   4.032
  495UNL     OC 1488   3.954   3.764   4.116
  496UNL     CO 1489   3.383   3.328   0.183
  496UNL     OC 1490   3.397   3.295   0.073
  496UNL     OC 1491   3.369   3.362   0.293
  497UNL     CO 1492   2.250   4.488   2.839
  497UNL     OC 1493   2.249   4.495   2.723
  497UNL     OC 1494   2.252   4.482   2.955
  498UNL     CO 1495   2.157   4.480   0.202
  498UNL     OC 1496   2.224   4.523   0.287
  498UNL     OC 1497   2.089   4.437   0.118
  499UNL     CO 1498   1.052   0.073   3.884
  499UNL     OC 1499   1.114   0.092   3.980
  499UNL     OC 1500   0.990   0.054   3.788
  500UNL     CO 1501   1.882   1.046   4.828
  500UNL     OC 1502   1.978   1.109   4.810
  500UNL     OC 1503   1.786   0.983   4.845
  501UNL     CO 1504   2.807   1.654   1.012
  501UNL     OC 1505   2.815   1.663   0.897
  501UNL     OC 1506   2.799   1.645   1.127
  502UNL     CO 1507   1.064   0.632   0.072
  502UNL     OC 1508   0.991   0.578  -0.000
  502UNL     OC 1509   1.137   0.687   0.143
  503UNL     CO 1510   1.505   2.566   3.906
  503UNL     OC 1511   1.468   2.587   4.014
  503UNL     OC 1512   1.542   2.546   3.798
  504UNL     CO 1513   0.751   4.635   1.149
  504UNL     OC 1514   0.778   4.641   1.262
  504UNL     OC 1515   0.724   4.628   1.036
  505UNL     CO 1516   1.648   1.942   2.441
  505UNL     OC 1517   1.752   1.963   2.393
  505UNL     OC 1518   1.545   1.922   2.490
  506UNL     CO 1519   0.360   1.239   2.802
  506UNL     OC 1520   0.328   1.212   2.910
  506UNL     OC 1521   0.391   1.267   2.694
  507UNL     CO 1522   1.111   0.492   1.169
  507UNL     OC 1523   1.102   0.607   1.179
  507UNL     OC 1524   1.121   0.377   1.158
  508UNL     CO 1525   1.736   1.223   0.640
  508UNL     OC 1526   1.690   1.196   0.537
  508UNL     OC 1527   1.781   1.251   0.743
  509UNL     CO 1528   1.815   3.166   4.097
  509UNL     OC 1529   1.827   3.132   3.986
  509UNL     OC 1530   1.803   3.201   4.207
  510UNL     CO 1531   4.717   0.055   4.492
  510UNL     OC 1532   4.603   0.070   4.475
  510UNL     OC 1533   4.830   0.039   4.509
  511UNL     CO 1534   2.315   1.711   2.187
  511UNL     OC 1535   2.270   1.704   2.294
  511UNL     OC 1536   2.359   1.718   2.080
  512SOL     OW 1537   1.736   0.839   0.257
  512SOL    HW1 1538   1.777   0.781   0.322
  512SOL    HW2 1539   1.643   0.831   0.274
  512SOL     MW 1540   1.730   0.831   0.267
  513SOL     OW 1541   1.602   0.771   1.252
  513SOL    HW1 1542   1.557   0.838   1.303
  513SOL    HW2 1543   1.690   0.807   1.238
  513SOL     MW 1544   1.608   0.784   1.256
  514SOL     OW 1545   1.025   1.610   1.629
  514SOL    HW1 1546   1.066   1.646   1.550
  514SOL    HW2 1547   1.060   1.521   1.636
  514SOL     MW 1548   1.036   1.603   1.620
  515SOL     OW 1549   1.582   1.165   1.233
  515SOL    HW1 1550   1.503   1.130   1.191
  515SOL    HW2 1551   1.609   1.237   1.177
  515SOL     MW 1552   1.575   1.170   1.220
  516SOL     OW 1553   0.256   0.506   0.427
  516SOL    HW1 1554   0.288   0.594   0.409
  516SOL    HW2 1555   0.244   0.504   0.522
  516SOL     MW 1556   0.259   0.518   0.439
  517SOL     OW 1557   0.334   0.919   1.328
  517SOL    HW1 1558   0.397   0.866   1.279
  517SOL    HW2 1559   0.315   0.993   1.271
  517SOL     MW 1560   0.340   0.921   1.315
  518SOL     OW 1561   0.655   0.261   0.514
  518SOL    HW1 1562   0.713   0.337   0.516
  518SOL    HW2 1563   0.590   0.282   0.447
  518SOL     MW 1564   0.654   0.273   0.505
  519SOL     OW 1565   0.742   1.188   0.689
  519SOL    HW1 1566   0.822   1.191   0.741
  519SOL    HW2 1567   0.770   1.155   0.603
  519SOL     MW 1568   0.756   1.184   0.684
  520SOL     OW 1569   0.767   1.529   1.592
  520SOL    HW1 1570   0.851   1.555   1.631
  520SOL    HW2 1571   0.791   1.473   1.518
  520SOL     MW 1572   0.781   1.525   1.587
  521SOL     OW 1573   0.519   0.692   0.680
  521SOL    HW1 1574   0.504   0.612   0.731
  521SOL    HW2 1575   0.601   0.727   0.714
  521SOL     MW 1576   0.527   0.684   0.692
  522SOL     OW 1577   0.856   1.378   1.365
  522SOL    HW1 1578   0.820   1.444   1.305
  522SOL    HW2 1579   0.784   1.316   1.378
  522SOL     MW 1580   0.842   1.378   1.359
  523SOL     OW 1581   0.661   0.518   1.057
  523SOL    HW1 1582   0.567   0.514   1.075
  523SOL    HW2 1583   0.691   0.427   1.066
  523SOL     MW 1584   0.652   0.506   1.060
  524SOL     OW 1585   0.407   0.932   0.961
  524SOL    HW1 1586   0.362   0.939   0.877
  524SOL    HW2 1587   0.387   1.015   1.005
  524SOL     MW 1588   0.399   0.944   0.955
  525SOL     OW 1589   0.104   1.778   0.836
  525SOL    HW1 1590   0.193   1.770   0.871
  525SOL    HW2 1591   0.068   1.690   0.841
  525SOL     MW 1592   0.111   1.765   0.841
  526SOL     OW 1593   1.369   1.170   0.205
  526SOL    HW1 1594   1.287   1.206   0.171
  526SOL    HW2 1595   1.437   1.213   0.154
  526SOL     MW 1596   1.367   1.180   0.193
  527SOL     OW 1597   0.368   1.305   0.871
  527SOL    HW1 1598   0.344   1.358   0.947
  527SOL    HW2 1599   0.424   1.363   0.819
  527SOL     MW 1600   0.372   1.320   0.874
  528SOL     OW 1601   0.930   0.949   0.681
  528SOL    HW1 1602   0.844   0.936   0.721
  528SOL    HW2 1603   0.983   0.876   0.713
  528SOL     MW 1604   0.926   0.938   0.690
  529SOL     OW 1605   0.338   1.601   1.466
  529SOL    HW1 1606   0.246   1.577   1.451
  529SOL    HW2 1607   0.382   1.518   1.483
  529SOL     MW 1608   0.332   1.586   1.465
  530SOL     OW 1609   1.794   0.312   0.854
  530SOL    HW1 1610   1.731   0.292   0.923
  530SOL    HW2 1611   1.784   0.241   0.791
  530SOL     MW 1612   1.784   0.299   0.855
  531SOL     OW 1613   0.418   0.284   0.366
  531SOL    HW1 1614   0.392   0.246   0.282
  531SOL    HW2 1615   0.355   0.354   0.382
  531SOL     MW 1616   0.407   0.287   0.357
  532SOL     OW 1617   0.253   1.245   0.403
  532SOL    HW1 1618   0.201   1.313   0.359
  532SOL    HW2 1619   0.250   1.171   0.343
  532SOL     MW 1620   0.245   1.244   0.390
  533SOL     OW 1621   0.915   1.708   0.181
  533SOL    HW1 1622   0.870   1.724   0.264
  533SOL    HW2 1623   0.846   1.673   0.123
  533SOL     MW 1624   0.901   1.705   0.183
  534SOL     OW 1625   1.850   0.481   0.156
  534SOL    HW1 1626   1.759   0.483   0.184
  534SOL    HW2 1627   1.895   0.543   0.214
  534SOL     MW 1628   1.843   0.489   0.166
  535SOL     OW 1629   1.395   0.719   1.578
  535SOL    HW1 1630   1.464   0.657   1.555
  535SOL    HW2 1631   1.320   0.693   1.525
  535SOL     MW 1632   1.395   0.706   1.569
  536SOL     OW 1633   0.136   1.599   1.130
  536SOL    HW1 1634   0.119   1.545   1.207
  536SOL    HW2 1635   0.124   1.689   1.160
  536SOL     MW 1636   0.133   1.603   1.144
  537SOL     OW 1637   1.131   1.106   1.570
  537SOL    HW1 1638   1.116   1.199   1.555
  537SOL    HW2 1639   1.226   1.096   1.570
  537SOL     MW 1640   1.140   1.116   1.567
  538SOL     OW 1641   0.927   0.530   1.771
  538SOL    HW1 1642   1.017   0.531   1.738
  538SOL    HW2 1643   0.886   0.455   1.729
  538SOL     MW 1644   0.933   0.520   1.762
  539SOL     OW 1645   1.502   1.062   0.898
  539SOL    HW1 1646   1.505   0.996   0.829
  539SOL    HW2 1647   1.587   1.105   0.894
  539SOL     MW 1648   1.514   1.058   0.889
  540SOL     OW 1649   1.787   1.285   0.318
  540SOL    HW1 1650   1.743   1.326   0.393
  540SOL    HW2 1651   1.844   1.353   0.283
  540SOL     MW 1652   1.789   1.299   0.323
  541SOL     OW 1653   0.707   0.334   1.721
  541SOL    HW1 1654   0.717   0.260   1.661
  541SOL    HW2 1655   0.743   0.303   1.804
  541SOL     MW 1656   0.713   0.320   1.723
  542SOL     OW 1657   0.443   1.701   0.636
  542SOL    HW1 1658   0.475   1.789   0.614
  542SOL    HW2 1659   0.396   1.673   0.558
  542SOL     MW 1660   0.442   1.709   0.623
  543SOL     OW 1661   1.827   0.063   0.685
  543SOL    HW1 1662   1.881   0.014   0.747
  543SOL    HW2 1663   1.770  -0.003   0.646
  543SOL     MW 1664   1.827   0.047   0.687
  544SOL     OW 1665   0.159   1.761   0.213
  544SOL    HW1 1666   0.188   1.851   0.205
  544SOL    HW2 1667   0.109   1.744   0.134
  544SOL     MW 1668   0.157   1.769   0.202
  545SOL     OW 1669   1.563   1.569   0.184
  545SOL    HW1 1670   1.611   1.638   0.230
  545SOL    HW2 1671   1.484   1.613   0.153
  545SOL     MW 1672   1.558   1.583   0.187
  546SOL     OW 1673   1.575   0.620   0.464
  546SOL    HW1 1674   1.614   0.620   0.551
  546SOL    HW2 1675   1.516   0.696   0.464
  546SOL     MW 1676   1.572   0.631   0.475
  547SOL     OW 1677   0.892   0.987   1.593
  547SOL    HW1 1678   0.869   0.967   1.683
  547SOL    HW2 1679   0.977   1.031   1.598
  547SOL     MW 1680   0.899   0.990   1.605
  548SOL     OW 1681   0.972   0.124   1.353
  548SOL    HW1 1682   0.978   0.086   1.266
  548SOL    HW2 1683   0.961   0.218   1.338
  548SOL     MW 1684   0.973   0.132   1.341
  549SOL     OW 1685   1.611   0.581   1.464
  549SOL    HW1 1686   1.592   0.490   1.443
  549SOL    HW2 1687   1.589   0.630   1.385
  549SOL     MW 1688   1.606   0.574   1.451
  550SOL     OW 1689   1.467   1.133   1.646
  550SOL    HW1 1690   1.549   1.174   1.676
  550SOL    HW2 1691   1.430   1.095   1.726
  550SOL     MW 1692   1.473   1.134   1.661
  551SOL     OW 1693   1.131   1.313   0.220
  551SOL    HW1 1694   1.081   1.315   0.302
  551SOL    HW2 1695   1.065   1.331   0.152
  551SOL     MW 1696   1.117   1.315   0.222
  552SOL     OW 1697   1.722   1.251   1.725
  552SOL    HW1 1698   1.772   1.177   1.757
  552SOL    HW2 1699   1.668   1.278   1.800
  552SOL     MW 1700   1.722   1.245   1.738
  553SOL     OW 1701   0.730   1.146   0.035
  553SOL    HW1 1702   0.652   1.092   0.022
  553SOL    HW2 1703   0.701   1.219   0.088
  553SOL     MW 1704   0.716   1.148   0.040
  554SOL     OW 1705   1.856   0.886   1.227
  554SOL    HW1 1706   1.872   0.924   1.140
  554SOL    HW2 1707   1.890   0.952   1.288
  554SOL     MW 1708   1.863   0.899   1.223
  555SOL     OW 1709   1.648   1.595   0.896
  555SOL    HW1 1710   1.677   1.662   0.957
  555SOL    HW2 1711   1.629   1.519   0.951
  555SOL     MW 1712   1.650   1.595   0.911
  556SOL     OW 1713   1.311   1.662   0.103
  556SOL    HW1 1714   1.237   1.625   0.153
  556SOL    HW2 1715   1.319   1.752   0.136
  556SOL     MW 1716   1.302   1.669   0.115
  557SOL     OW 1717   0.119   0.668   1.192
  557SOL    HW1 1718   0.181   0.698   1.258
  557SOL    HW2 1719   0.053   0.737   1.186
  557SOL     MW 1720   0.118   0.681   1.199
  558SOL     OW 1721   1.535   1.336   0.045
  558SOL    HW1 1722   1.482   1.385  -0.019
  558SOL    HW2 1723   1.566   1.402   0.106
  558SOL     MW 1724   1.533   1.350   0.043
  559SOL     OW 1725   0.760   0.225   0.100
  559SOL    HW1 1726   0.708   0.145   0.088
  559SOL    HW2 1727   0.847   0.202   0.068
  559SOL     MW 1728   0.763   0.211   0.094
  560SOL     OW 1729   0.214   1.777   1.644
  560SOL    HW1 1730   0.188   1.845   1.582
  560SOL    HW2 1731   0.262   1.714   1.592
  560SOL     MW 1732   0.216   1.777   1.630
  561SOL     OW 1733   0.121   0.865   0.557
  561SOL    HW1 1734   0.212   0.880   0.584
  561SOL    HW2 1735   0.124   0.786   0.503
  561SOL     MW 1736   0.133   0.857   0.555
  562SOL     OW 1737   0.743   0.123   1.518
  562SOL    HW1 1738   0.720   0.031   1.520
  562SOL    HW2 1739   0.829   0.125   1.475
  562SOL     MW 1740   0.750   0.113   1.514
  563SOL     OW 1741   0.748   1.797   0.931
  563SOL    HW1 1742   0.837   1.812   0.961
  563SOL    HW2 1743   0.743   1.844   0.847
  563SOL     MW 1744   0.758   1.805   0.924
  564SOL     OW 1745   0.129   1.477   0.596
  564SOL    HW1 1746   0.101   1.516   0.678
  564SOL    HW2 1747   0.149   1.386   0.618
  564SOL     MW 1748   0.127   1.469   0.609
  565SOL     OW 1749   1.645   0.844   1.825
  565SOL    HW1 1750   1.700   0.768   1.806
  565SOL    HW2 1751   1.647   0.852   1.920
  565SOL     MW 1752   1.653   0.835   1.833
  566SOL     OW 1753   0.695   1.577   0.036
  566SOL    HW1 1754   0.635   1.646   0.006
  566SOL    HW2 1755   0.640   1.519   0.089
  566SOL     MW 1756   0.679   1.579   0.038
  567SOL     OW 1757   1.133   0.222   0.259
  567SOL    HW1 1758   1.066   0.198   0.196
  567SOL    HW2 1759   1.198   0.271   0.208
  567SOL     MW 1760   1.133   0.224   0.244
  568SOL     OW 1761   1.200   0.744   0.967
  568SOL    HW1 1762   1.213   0.838   0.977
  568SOL    HW2 1763   1.161   0.734   0.881
  568SOL     MW 1764   1.196   0.755   0.957
  569SOL     OW 1765   0.652   0.939   0.771
  569SOL    HW1 1766   0.563   0.930   0.804
  569SOL    HW2 1767   0.656   1.029   0.739
  569SOL     MW 1768   0.641   0.950   0.771
  570SOL     OW 1769   1.451   0.522   0.766
  570SOL    HW1 1770   1.396   0.443   0.765
  570SOL    HW2 1771   1.433   0.563   0.850
  570SOL     MW 1772   1.441   0.517   0.775
  571SOL     OW 1773   0.422   0.209   1.583
  571SOL    HW1 1774   0.343   0.227   1.635
  571SOL    HW2 1775   0.417   0.271   1.510
  571SOL     MW 1776   0.412   0.219   1.580
  572SOL     OW 1777   1.371   1.590   1.221
  572SOL    HW1 1778   1.296   1.636   1.259
  572SOL    HW2 1779   1.353   1.497   1.238
  572SOL     MW 1780   1.360   1.584   1.229
  573SOL     OW 1781   1.375   1.798   0.651
  573SOL    HW1 1782   1.318   1.751   0.590
  573SOL    HW2 1783   1.461   1.759   0.638
  573SOL     MW 1784   1.378   1.789   0.641
  574SOL     OW 1785   1.328   0.274   0.782
  574SOL    HW1 1786   1.356   0.206   0.843
  574SOL    HW2 1787   1.242   0.245   0.752
  574SOL     MW 1788   1.321   0.261   0.786
  575SOL     OW 1789   0.133   1.208   0.716
  575SOL    HW1 1790   0.197   1.240   0.779
  575SOL    HW2 1791   0.182   1.144   0.664
  575SOL     MW 1792   0.148   1.204   0.717
  576SOL     OW 1793   0.633   1.284   1.698
  576SOL    HW1 1794   0.681   1.367   1.685
  576SOL    HW2 1795   0.690   1.232   1.754
  576SOL     MW 1796   0.647   1.288   1.704
  577SOL     OW 1797   0.209   1.526   1.838
  577SOL    HW1 1798   0.265   1.450   1.853
  577SOL    HW2 1799   0.158   1.504   1.760
  577SOL     MW 1800   0.209   1.513   1.829
  578SOL     OW 1801   1.308   0.378   0.117
  578SOL    HW1 1802   1.281   0.444   0.053
  578SOL    HW2 1803   1.378   0.421   0.167
  578SOL     MW 1804   1.313   0.391   0.114
  579SOL     OW 1805   0.976   0.083   0.054
  579SOL    HW1 1806   1.032   0.075  -0.024
  579SOL    HW2 1807   0.953  -0.007   0.076
  579SOL     MW 1808   0.981   0.070   0.047
  580SOL     OW 1809   1.481   0.934   0.259
  580SOL    HW1 1810   1.448   1.023   0.249
  580SOL    HW2 1811   1.446   0.905   0.344
  580SOL     MW 1812   1.471   0.943   0.270
  581SOL     OW 1813   1.094   1.363   1.447
  581SOL    HW1 1814   1.005   1.369   1.415
  581SOL    HW2 1815   1.138   1.442   1.415
  581SOL     MW 1816   1.089   1.373   1.439
  582SOL     OW 1817   0.387   0.031   1.789
  582SOL    HW1 1818   0.315  -0.004   1.737
  582SOL    HW2 1819   0.445   0.072   1.724
  582SOL     MW 1820   0.385   0.032   1.774
  583SOL     OW 1821   0.411   1.521   1.088
  583SOL    HW1 1822   0.456   1.583   1.145
  583SOL    HW2 1823   0.318   1.540   1.101
  583SOL     MW 1824   0.404   1.531   1.095
  584SOL     OW 1825   1.851   1.050   1.442
  584SOL    HW1 1826   1.766   1.063   1.401
  584SOL    HW2 1827   1.831   1.014   1.529
  584SOL     MW 1828   1.838   1.046   1.447
  585SOL     OW 1829   0.833   1.589   1.196
  585SOL    HW1 1830   0.857   1.578   1.105
  585SOL    HW2 1831   0.756   1.646   1.194
  585SOL     MW 1832   0.825   1.594   1.185
  586SOL     OW 1833   0.475   0.972   0.051
  586SOL    HW1 1834   0.398   0.985   0.107
  586SOL    HW2 1835   0.439   0.936  -0.030
  586SOL     MW 1836   0.461   0.968   0.048
  587SOL     OW 1837   1.128   0.945   0.294
  587SOL    HW1 1838   1.038   0.966   0.269
  587SOL    HW2 1839   1.155   1.018   0.350
  587SOL     MW 1840   1.120   0.957   0.297
  588SOL     OW 1841   1.492   0.304   1.388
  588SOL    HW1 1842   1.439   0.306   1.468
  588SOL    HW2 1843   1.477   0.217   1.351
  588SOL     MW 1844   1.484   0.294   1.393
  589SOL     OW 1845   1.828   0.228   1.261
  589SOL    HW1 1846   1.809   0.295   1.196
  589SOL    HW2 1847   1.885   0.166   1.216
  589SOL     MW 1848   1.832   0.229   1.247
  590SOL     OW 1849   0.515   1.301   0.450
  590SOL    HW1 1850   0.508   1.333   0.540
  590SOL    HW2 1851   0.425   1.285   0.422
  590SOL     MW 1852   0.503   1.303   0.457
  591SOL     OW 1853   1.110   1.694   1.359
  591SOL    HW1 1854   1.030   1.679   1.309
  591SOL    HW2 1855   1.117   1.789   1.366
  591SOL     MW 1856   1.101   1.705   1.353
  592SOL     OW 1857   1.224   1.659   0.849
  592SOL    HW1 1858   1.271   1.732   0.808
  592SOL    HW2 1859   1.145   1.698   0.885
  592SOL     MW 1860   1.219   1.674   0.848
  593SOL     OW 1861   0.717   0.718   1.831
  593SOL    HW1 1862   0.787   0.660   1.803
  593SOL    HW2 1863   0.660   0.663   1.886
  593SOL     MW 1864   0.719   0.705   1.835
  594SOL     OW 1865   1.144   0.065   1.710
  594SOL    HW1 1866   1.139  -0.028   1.691
  594SOL    HW2 1867   1.227   0.076   1.756
  594SOL     MW 1868   1.152   0.054   1.714
  595SOL     OW 1869   0.518   0.585   0.164
  595SOL    HW1 1870   0.484   0.641   0.234
  595SOL    HW2 1871   0.589   0.535   0.204
  595SOL     MW 1872   0.524   0.586   0.178
  596SOL     OW 1873   1.614   1.336   0.986
  596SOL    HW1 1874   1.649   1.318   0.899
  596SOL    HW2 1875   1.519   1.337   0.973
  596SOL     MW 1876   1.606   1.333   0.973
  597SOL     OW 1877   1.043   0.984   1.355
  597SOL    HW1 1878   1.086   1.019   1.433
  597SOL    HW2 1879   1.026   1.061   1.301
  597SOL     MW 1880   1.046   0.999   1.358
  598SOL     OW 1881   1.574   0.471   0.228
  598SOL    HW1 1882   1.566   0.542   0.165
  598SOL    HW2 1883   1.592   0.515   0.311
  598SOL     MW 1884   1.575   0.485   0.230
  599SOL     OW 1885   0.434   0.126   0.657
  599SOL    HW1 1886   0.484   0.169   0.588
  599SOL    HW2 1887   0.349   0.170   0.657
  599SOL     MW 1888   0.431   0.139   0.648
  600SOL     OW 1889   0.193   1.188   1.517
  600SOL    HW1 1890   0.221   1.141   1.595
  600SOL    HW2 1891   0.114   1.143   1.488
  600SOL     MW 1892   0.186   1.177   1.523
  601SOL     OW 1893   0.701   0.515   1.484
  601SOL    HW1 1894   0.673   0.603   1.508
  601SOL    HW2 1895   0.670   0.459   1.555
  601SOL     MW 1896   0.693   0.518   1.496
  602SOL     OW 1897   0.356   0.911   0.697
  602SOL    HW1 1898   0.414   0.967   0.645
  602SOL    HW2 1899   0.400   0.826   0.699
  602SOL     MW 1900   0.369   0.908   0.690
  603SOL     OW 1901   1.496   0.263   0.534
  603SOL    HW1 1902   1.418   0.213   0.559
  603SOL    HW2 1903   1.467   0.354   0.534
  603SOL     MW 1904   1.482   0.267   0.537
  604SOL     OW 1905   1.082   0.225   0.693
  604SOL    HW1 1906   1.102   0.300   0.637
  604SOL    HW2 1907   1.062   0.264   0.778
  604SOL     MW 1908   1.083   0.241   0.697
  605SOL     OW 1909   0.978   1.475   0.025
  605SOL    HW1 1910   1.005   1.553  -0.023
  605SOL    HW2 1911   0.885   1.490   0.044
  605SOL     MW 1912   0.969   1.488   0.021
  606SOL     OW 1913   1.842   0.998   1.712
  606SOL    HW1 1914   1.755   0.978   1.748
  606SOL    HW2 1915   1.896   0.924   1.737
  606SOL     MW 1916   1.837   0.987   1.720
  607SOL     OW 1917   0.063   1.511   0.869
  607SOL    HW1 1918   0.095   1.515   0.960
  607SOL    HW2 1919  -0.032   1.519   0.877
  607SOL     MW 1920   0.055   1.514   0.882
  608SOL     OW 1921   0.018   0.637   0.416
  608SOL    HW1 1922  -0.042   0.609   0.486
  608SOL    HW2 1923   0.092   0.577   0.422
  608SOL     MW 1924   0.020   0.626   0.425
  609SOL     OW 1925   1.586   1.849   1.850
  609SOL    HW1 1926   1.631   1.773   1.815
  609SOL    HW2 1927   1.624   1.862   1.937
  609SOL     MW 1928   1.596   1.842   1.856
  610SOL     OW 1929   1.186   1.368   0.576
  610SOL    HW1 1930   1.209   1.319   0.654
  610SOL    HW2 1931   1.267   1.410   0.548
  610SOL     MW 1932   1.199   1.368   0.583
  611SOL     OW 1933   0.444   0.376   1.305
  611SOL    HW1 1934   0.477   0.457   1.345
  611SOL    HW2 1935   0.417   0.402   1.217
  611SOL     MW 1936   0.443   0.390   1.299
  612SOL     OW 1937   0.398   0.343   1.041
  612SOL    HW1 1938   0.428   0.257   1.012
  612SOL    HW2 1939   0.303   0.336   1.044
  612SOL     MW 1940   0.390   0.332   1.039
  613SOL     OW 1941   1.227   0.552   1.732
  613SOL    HW1 1942   1.279   0.487   1.685
  613SOL    HW2 1943   1.185   0.603   1.662
  613SOL     MW 1944   1.228   0.549   1.715
  614SOL     OW 1945   1.326   0.347   1.593
  614SOL    HW1 1946   1.233   0.331   1.580
  614SOL    HW2 1947   1.352   0.285   1.661
  614SOL     MW 1948   1.316   0.337   1.600
  615SOL     OW 1949   0.541   0.121   0.932
  615SOL    HW1 1950   0.551   0.030   0.958
  615SOL    HW2 1951   0.497   0.117   0.847
  615SOL     MW 1952   0.537   0.109   0.924
  616SOL     OW 1953   0.635   1.736   1.478
  616SOL    HW1 1954   0.552   1.721   1.523
  616SOL    HW2 1955   0.694   1.669   1.513
  616SOL     MW 1956   0.633   1.726   1.488
  617SOL     OW 1957   1.692   0.443   1.103
  617SOL    HW1 1958   1.625   0.476   1.163
  617SOL    HW2 1959   1.735   0.521   1.069
  617SOL     MW 1960   1.690   0.458   1.107
  618SOL     OW 1961   1.870   1.163   1.073
  618SOL    HW1 1962   1.863   1.103   0.998
  618SOL    HW2 1963   1.796   1.223   1.062
  618SOL     MW 1964   1.860   1.163   1.062
  619SOL     OW 1965   1.252   1.025   0.991
  619SOL    HW1 1966   1.266   0.997   1.082
  619SOL    HW2 1967   1.338   1.056   0.963
  619SOL     MW 1968   1.265   1.026   1.000
  620SOL     OW 1969   1.828   0.651   1.812
  620SOL    HW1 1970   1.865   0.596   1.881
  620SOL    HW2 1971   1.853   0.608   1.730
  620SOL     MW 1972   1.835   0.639   1.811
  621SOL     OW 1973   1.375   0.949   1.863
  621SOL    HW1 1974   1.441   0.897   1.817
  621SOL    HW2 1975   1.395   0.936   1.956
  621SOL     MW 1976   1.386   0.940   1.870
  622SOL     OW 1977   1.386   0.810   0.490
  622SOL    HW1 1978   1.301   0.780   0.460
  622SOL    HW2 1979   1.378   0.817   0.585
  622SOL     MW 1980   1.374   0.808   0.499
  623SOL     OW 1981   0.746   0.253   1.044
  623SOL    HW1 1982   0.719   0.255   1.135
  623SOL    HW2 1983   0.676   0.205   0.999
  623SOL     MW 1984   0.734   0.249   1.051
  624SOL     OW 1985   0.600   1.745   1.206
  624SOL    HW1 1986   0.652   1.822   1.183
  624SOL    HW2 1987   0.609   1.737   1.301
  624SOL     MW 1988   0.609   1.752   1.217
  625SOL     OW 1989   1.502   1.330   1.438
  625SOL    HW1 1990   1.487   1.259   1.501
  625SOL    HW2 1991   1.548   1.288   1.366
  625SOL     MW 1992   1.508   1.314   1.438
  626SOL     OW 1993   0.576   1.061   1.555
  626SOL    HW1 1994   0.613   1.066   1.467
  626SOL    HW2 1995   0.615   1.134   1.602
  626SOL     MW 1996   0.586   1.071   1.550
  627SOL     OW 1997   0.759   0.476   0.216
  627SOL    HW1 1998   0.832   0.525   0.179
  627SOL    HW2 1999   0.775   0.385   0.190
  627SOL     MW 2000   0.771   0.471   0.209
  628SOL     OW 2001   1.567   1.593   1.539
  628SOL    HW1 2002   1.609   1.578   1.624
  628SOL    HW2 2003   1.558   1.506   1.501
  628SOL     MW 2004   1.571   1.581   1.546
  629SOL     OW 2005   1.227   0.072   1.130
  629SOL    HW1 2006   1.282   0.081   1.052
  629SOL    HW2 2007   1.282   0.106   1.201
  629SOL     MW 2008   1.241   0.077   1.129
  630SOL     OW 2009   0.234   0.985   0.314
  630SOL    HW1 2010   0.171   1.001   0.243
  630SOL    HW2 2011   0.181   0.948   0.385
  630SOL     MW 2012   0.219   0.982   0.314
  631SOL     OW 2013   0.590   1.339   0.173
  631SOL    HW1 2014   0.605   1.315   0.265
  631SOL    HW2 2015   0.498   1.317   0.157
  631SOL     MW 2016   0.580   1.332   0.183
  632SOL     OW 2017   1.129   1.570   0.325
  632SOL    HW1 2018   1.137   1.488   0.276
  632SOL    HW2 2019   1.048   1.609   0.292
  632SOL     MW 2020   1.119   1.565   0.315
  633SOL     OW 2021   0.388   1.728   0.894
  633SOL    HW1 2022   0.392   1.639   0.929
  633SOL    HW2 2023   0.414   1.719   0.803
  633SOL     MW 2024   0.391   1.716   0.886
  634SOL     OW 2025   1.005   1.206   1.137
  634SOL    HW1 2026   0.937   1.140   1.153
  634SOL    HW2 2027   1.023   1.200   1.044
  634SOL     MW 2028   0.998   1.197   1.128
  635SOL     OW 2029   0.094   1.481   1.388
  635SOL    HW1 2030   0.084   1.439   1.474
  635SOL    HW2 2031   0.015   1.534   1.378
  635SOL     MW 2032   0.083   1.482   1.399
  636SOL     OW 2033   0.998   0.345   0.958
  636SOL    HW1 2034   0.928   0.297   1.003
  636SOL    HW2 2035   1.030   0.408   1.022
  636SOL     MW 2036   0.993   0.347   0.972
  637SOL     OW 2037   0.649   0.781   1.578
  637SOL    HW1 2038   0.642   0.876   1.566
  637SOL    HW2 2039   0.658   0.770   1.673
  637SOL     MW 2040   0.650   0.793   1.588
  638SOL     OW 2041   0.370   1.296   1.836
  638SOL    HW1 2042   0.442   1.298   1.773
  638SOL    HW2 2043   0.340   1.205   1.835
  638SOL     MW 2044   0.375   1.285   1.828
  639SOL     OW 2045   1.454   0.059   1.303
  639SOL    HW1 2046   1.525   0.005   1.267
  639SOL    HW2 2047   1.453   0.038   1.396
  639SOL     MW 2048   1.463   0.050   1.311
  640SOL     OW 2049   1.654   1.589   1.787
  640SOL    HW1 2050   1.627   1.586   1.878
  640SOL    HW2 2051   1.750   1.593   1.790
  640SOL     MW 2052   1.664   1.589   1.799
  641SOL     OW 2053   0.465   0.451   0.771
  641SOL    HW1 2054   0.536   0.399   0.734
  641SOL    HW2 2055   0.451   0.416   0.858
  641SOL     MW 2056   0.473   0.440   0.778
  642SOL     OW 2057   0.020   1.786   1.843
  642SOL    HW1 2058   0.070   1.764   1.765
  642SOL    HW2 2059   0.028   1.881   1.851
  642SOL     MW 2060   0.028   1.795   1.834
  643SOL     OW 2061   0.781   1.544   0.847
  643SOL    HW1 2062   0.709   1.481   0.860
  643SOL    HW2 2063   0.742   1.629   0.865
  643SOL     MW 2064   0.765   1.547   0.850
  644SOL     OW 2065   0.186   0.082   0.427
  644SOL    HW1 2066   0.257   0.103   0.366
  644SOL    HW2 2067   0.140   0.010   0.385
  644SOL     MW 2068   0.190   0.076   0.413
  645SOL     OW 2069   1.755   1.456   0.527
  645SOL    HW1 2070   1.725   1.389   0.588
  645SOL    HW2 2071   1.849   1.462   0.541
  645SOL     MW 2072   1.763   1.448   0.537
  646SOL     OW 2073   1.311   1.133   0.457
  646SOL    HW1 2074   1.283   1.219   0.490
  646SOL    HW2 2075   1.339   1.149   0.367
  646SOL     MW 2076   1.311   1.147   0.449
  647SOL     OW 2077   0.973   0.053   0.510
  647SOL    HW1 2078   1.010   0.112   0.575
  647SOL    HW2 2079   0.950   0.109   0.436
  647SOL     MW 2080   0.974   0.068   0.509
  648SOL     OW 2081   0.202   0.775   1.511
  648SOL    HW1 2082   0.223   0.844   1.449
  648SOL    HW2 2083   0.282   0.722   1.516
  648SOL     MW 2084   0.215   0.776   1.505
  649SOL     OW 2085   1.738   0.866   0.633
  649SOL    HW1 2086   1.832   0.855   0.621
  649SOL    HW2 2087   1.714   0.938   0.574
  649SOL     MW 2088   1.748   0.874   0.624
  650SOL     OW 2089   0.394   0.744   0.406
  650SOL    HW1 2090   0.394   0.839   0.391
  650SOL    HW2 2091   0.471   0.728   0.460
  650SOL     MW 2092   0.404   0.755   0.411
  651SOL     OW 2093   1.170   0.603   1.470
  651SOL    HW1 2094   1.206   0.576   1.386
  651SOL    HW2 2095   1.083   0.637   1.449
  651SOL     MW 2096   1.164   0.604   1.457
  652SOL     OW 2097   0.153   0.475   0.695
  652SOL    HW1 2098   0.215   0.482   0.768
  652SOL    HW2 2099   0.153   0.382   0.672
  652SOL     MW 2100   0.161   0.464   0.702
  653SOL     OW 2101   1.700   1.815   0.227
  653SOL    HW1 2102   1.767   1.848   0.167
  653SOL    HW2 2103   1.657   1.894   0.261
  653SOL     MW 2104   1.702   1.830   0.223
  654SOL     OW 2105   0.639   0.206   1.284
  654SOL    HW1 2106   0.570   0.269   1.305
  654SOL    HW2 2107   0.666   0.170   1.369
  654SOL     MW 2108   0.633   0.209   1.297
  655SOL     OW 2109   0.022   1.047   0.153
  655SOL    HW1 2110  -0.009   1.112   0.216
  655SOL    HW2 2111  -0.029   0.969   0.172
  655SOL     MW 2112   0.012   1.044   0.163
  656SOL     OW 2113   1.466   0.798   0.745
  656SOL    HW1 2114   1.546   0.813   0.694
  656SOL    HW2 2115   1.459   0.703   0.751
  656SOL     MW 2116   1.475   0.787   0.740
  657SOL     OW 2117   0.334   1.024   1.690
  657SOL    HW1 2118   0.288   0.940   1.692
  657SOL    HW2 2119   0.391   1.018   1.614
  657SOL     MW 2120   0.336   1.012   1.682
  658SOL     OW 2121   1.451   0.667   0.011
  658SOL    HW1 2122   1.379   0.643  -0.047
  658SOL    HW2 2123   1.517   0.704  -0.047
  658SOL     MW 2124   1.450   0.669  -0.004
  659SOL     OW 2125   0.585   1.399   0.691
  659SOL    HW1 2126   0.650   1.332   0.712
  659SOL    HW2 2127   0.637   1.476   0.668
  659SOL     MW 2128   0.600   1.401   0.690
  660SOL     OW 2129   0.846   0.564   0.821
  660SOL    HW1 2130   0.786   0.582   0.893
  660SOL    HW2 2131   0.880   0.476   0.840
  660SOL     MW 2132   0.842   0.554   0.834
  661SOL     OW 2133   1.071   1.147   0.840
  661SOL    HW1 2134   1.163   1.128   0.858
  661SOL    HW2 2135   1.044   1.077   0.780
  661SOL     MW 2136   1.079   1.135   0.834
  662SOL     OW 2137   0.864   0.967   0.195
  662SOL    HW1 2138   0.850   0.879   0.160
  662SOL    HW2 2139   0.815   1.024   0.136
  662SOL     MW 2140   0.856   0.962   0.183
  663SOL     OW 2141   1.264   1.333   1.204
  663SOL    HW1 2142   1.275   1.300   1.293
  663SOL    HW2 2143   1.183   1.292   1.173
  663SOL     MW 2144   1.254   1.325   1.210
  664SOL     OW 2145   1.344   1.455   1.736
  664SOL    HW1 2146   1.344   1.549   1.752
  664SOL    HW2 2147   1.389   1.445   1.652
  664SOL     MW 2148   1.350   1.465   1.727
  665SOL     OW 2149   1.583   0.173   0.297
  665SOL    HW1 2150   1.576   0.177   0.392
  665SOL    HW2 2151   1.595   0.264   0.270
  665SOL     MW 2152   1.584   0.186   0.305
  666SOL     OW 2153   0.199   0.359   1.715
  666SOL    HW1 2154   0.156   0.418   1.652
  666SOL    HW2 2155   0.267   0.414   1.755
  666SOL     MW 2156   0.203   0.374   1.712
  667SOL     OW 2157   1.650   0.156   1.039
  667SOL    HW1 2158   1.695   0.074   1.058
  667SOL    HW2 2159   1.670   0.212   1.115
  667SOL     MW 2160   1.660   0.152   1.051
  668SOL     OW 2161   0.098  -0.001   1.138
  668SOL    HW1 2162   0.089   0.000   1.043
  668SOL    HW2 2163   0.192   0.011   1.153
  668SOL     MW 2164   0.110   0.002   1.129
  669SOL     OW 2165   0.427   1.337   1.501
  669SOL    HW1 2166   0.348   1.287   1.524
  669SOL    HW2 2167   0.497   1.296   1.551
  669SOL     MW 2168   0.425   1.325   1.511
  670SOL     OW 2169   0.311   0.126   0.184
  670SOL    HW1 2170   0.240   0.181   0.152
  670SOL    HW2 2171   0.353   0.092   0.105
  670SOL     MW 2172   0.307   0.128   0.170
  671SOL     OW 2173   1.435   0.623   1.020
  671SOL    HW1 2174   1.358   0.669   0.986
  671SOL    HW2 2175   1.492   0.692   1.054
  671SOL     MW 2176   1.432   0.638   1.020
  672SOL     OW 2177   0.067   0.225   0.033
  672SOL    HW1 2178   0.034   0.304   0.077
  672SOL    HW2 2179   0.122   0.258  -0.038
  672SOL     MW 2180   0.070   0.239   0.030
  673SOL     OW 2181   0.101   1.482   0.222
  673SOL    HW1 2182   0.118   1.566   0.264
  673SOL    HW2 2183   0.136   1.491   0.134
  673SOL     MW 2184   0.106   1.495   0.216
  674SOL     OW 2185   1.373   1.571   0.439
  674SOL    HW1 2186   1.436   1.561   0.368
  674SOL    HW2 2187   1.290   1.591   0.394
  674SOL     MW 2188   1.370   1.572   0.424
  675SOL     OW 2189   1.602   0.771   3.120
  675SOL    HW1 2190   1.557   0.838   3.171
  675SOL    HW2 2191   1.690   0.807   3.106
  675SOL     MW 2192   1.608   0.784   3.124
  676SOL     OW 2193   1.582   1.165   3.101
  676SOL    HW1 2194   1.503   1.130   3.059
  676SOL    HW2 2195   1.609   1.237   3.045
  676SOL     MW 2196   1.575   1.170   3.088
  677SOL     OW 2197   0.814   0.478   2.367
  677SOL    HW1 2198   0.789   0.566   2.395
  677SOL    HW2 2199   0.811   0.481   2.271
  677SOL     MW 2200   0.810   0.490   2.359
  678SOL     OW 2201   0.334   0.919   3.196
  678SOL    HW1 2202   0.397   0.866   3.147
  678SOL    HW2 2203   0.315   0.993   3.139
  678SOL     MW 2204   0.340   0.921   3.183
  679SOL     OW 2205   0.655   0.261   2.382
  679SOL    HW1 2206   0.713   0.337   2.384
  679SOL    HW2 2207   0.590   0.282   2.315
  679SOL     MW 2208   0.654   0.273   2.373
  680SOL     OW 2209   0.742   1.188   2.557
  680SOL    HW1 2210   0.822   1.191   2.609
  680SOL    HW2 2211   0.770   1.155   2.471
  680SOL     MW 2212   0.756   1.184   2.552
  681SOL     OW 2213   0.767   1.529   3.460
  681SOL    HW1 2214   0.851   1.555   3.499
  681SOL    HW2 2215   0.791   1.473   3.386
  681SOL     MW 2216   0.781   1.525   3.455
  682SOL     OW 2217   0.519   0.692   2.548
  682SOL    HW1 2218   0.504   0.612   2.599
  682SOL    HW2 2219   0.601   0.727   2.582
  682SOL     MW 2220   0.527   0.684   2.560
  683SOL     OW 2221   0.856   1.378   3.233
  683SOL    HW1 2222   0.820   1.444   3.173
  683SOL    HW2 2223   0.784   1.316   3.246
  683SOL     MW 2224   0.842   1.378   3.227
  684SOL     OW 2225   0.407   0.932   2.829
  684SOL    HW1 2226   0.362   0.939   2.745
  684SOL    HW2 2227   0.387   1.015   2.873
  684SOL     MW 2228   0.399   0.944   2.823
  685SOL     OW 2229   0.104   1.778   2.704
  685SOL    HW1 2230   0.193   1.770   2.739
  685SOL    HW2 2231   0.068   1.690   2.709
  685SOL     MW 2232   0.111   1.765   2.709
  686SOL     OW 2233   0.930   0.949   2.549
  686SOL    HW1 2234   0.844   0.936   2.589
  686SOL    HW2 2235   0.983   0.876   2.581
  686SOL     MW 2236   0.926   0.938   2.558
  687SOL     OW 2237   0.338   1.601   3.334
  687SOL    HW1 2238   0.246   1.577   3.319
  687SOL    HW2 2239   0.382   1.518   3.351
  687SOL     MW 2240   0.332   1.586   3.333
  688SOL     OW 2241   0.418   0.284   2.234
  688SOL    HW1 2242   0.392   0.246   2.150
  688SOL    HW2 2243   0.355   0.354   2.250
  688SOL     MW 2244   0.407   0.287   2.225
  689SOL     OW 2245   0.253   1.245   2.271
  689SOL    HW1 2246   0.201   1.313   2.227
  689SOL    HW2 2247   0.250   1.171   2.211
  689SOL     MW 2248   0.245   1.244   2.258
  690SOL     OW 2249   1.850   0.481   2.024
  690SOL    HW1 2250   1.759   0.483   2.052
  690SOL    HW2 2251   1.895   0.543   2.082
  690SOL     MW 2252   1.843   0.489   2.034
  691SOL     OW 2253   1.595   1.084   2.374
  691SOL    HW1 2254   1.505   1.084   2.409
  691SOL    HW2 2255   1.588   1.130   2.291
  691SOL     MW 2256   1.582   1.090   2.368
  692SOL     OW 2257   1.395   0.719   3.446
  692SOL    HW1 2258   1.464   0.657   3.423
  692SOL    HW2 2259   1.320   0.693   3.393
  692SOL     MW 2260   1.395   0.706   3.437
  693SOL     OW 2261   0.136   1.599   2.998
  693SOL    HW1 2262   0.119   1.545   3.075
  693SOL    HW2 2263   0.124   1.689   3.028
  693SOL     MW 2264   0.133   1.603   3.012
  694SOL     OW 2265   1.131   1.106   3.438
  694SOL    HW1 2266   1.116   1.199   3.423
  694SOL    HW2 2267   1.226   1.096   3.438
  694SOL     MW 2268   1.140   1.116   3.435
  695SOL     OW 2269   0.927   0.530   3.639
  695SOL    HW1 2270   1.017   0.531   3.606
  695SOL    HW2 2271   0.886   0.455   3.597
  695SOL     MW 2272   0.933   0.520   3.630
  696SOL     OW 2273   1.502   1.062   2.766
  696SOL    HW1 2274   1.505   0.996   2.697
  696SOL    HW2 2275   1.587   1.105   2.762
  696SOL     MW 2276   1.514   1.058   2.757
  697SOL     OW 2277   1.122   0.665   2.335
  697SOL    HW1 2278   1.148   0.689   2.246
  697SOL    HW2 2279   1.104   0.572   2.331
  697SOL     MW 2280   1.124   0.657   2.322
  698SOL     OW 2281   1.787   1.285   2.186
  698SOL    HW1 2282   1.743   1.326   2.261
  698SOL    HW2 2283   1.844   1.353   2.151
  698SOL     MW 2284   1.789   1.299   2.191
  699SOL     OW 2285   0.707   0.334   3.589
  699SOL    HW1 2286   0.717   0.260   3.529
  699SOL    HW2 2287   0.743   0.303   3.672
  699SOL     MW 2288   0.713   0.320   3.591
  700SOL     OW 2289   0.443   1.701   2.504
  700SOL    HW1 2290   0.475   1.789   2.482
  700SOL    HW2 2291   0.396   1.673   2.426
  700SOL     MW 2292   0.442   1.709   2.491
  701SOL     OW 2293   1.827   0.063   2.553
  701SOL    HW1 2294   1.881   0.014   2.615
  701SOL    HW2 2295   1.770  -0.003   2.514
  701SOL     MW 2296   1.827   0.047   2.555
  702SOL     OW 2297   0.159   1.761   2.081
  702SOL    HW1 2298   0.188   1.851   2.073
  702SOL    HW2 2299   0.109   1.744   2.002
  702SOL     MW 2300   0.157   1.769   2.070
  703SOL     OW 2301   0.961   0.694   1.996
  703SOL    HW1 2302   0.963   0.641   1.917
  703SOL    HW2 2303   1.049   0.731   2.002
  703SOL     MW 2304   0.973   0.693   1.985
  704SOL     OW 2305   1.575   0.620   2.332
  704SOL    HW1 2306   1.614   0.620   2.419
  704SOL    HW2 2307   1.516   0.696   2.332
  704SOL     MW 2308   1.572   0.631   2.343
  705SOL     OW 2309   0.892   0.987   3.461
  705SOL    HW1 2310   0.869   0.967   3.551
  705SOL    HW2 2311   0.977   1.031   3.466
  705SOL     MW 2312   0.899   0.990   3.473
  706SOL     OW 2313   0.972   0.124   3.221
  706SOL    HW1 2314   0.978   0.086   3.134
  706SOL    HW2 2315   0.961   0.218   3.206
  706SOL     MW 2316   0.973   0.132   3.209
  707SOL     OW 2317   1.061   0.613   3.055
  707SOL    HW1 2318   1.136   0.642   3.002
  707SOL    HW2 2319   0.993   0.678   3.039
  707SOL     MW 2320   1.062   0.625   3.045
  708SOL     OW 2321   1.611   0.581   3.332
  708SOL    HW1 2322   1.592   0.490   3.311
  708SOL    HW2 2323   1.589   0.630   3.253
  708SOL     MW 2324   1.606   0.574   3.319
  709SOL     OW 2325   1.753   1.675   3.236
  709SOL    HW1 2326   1.681   1.637   3.287
  709SOL    HW2 2327   1.770   1.760   3.277
  709SOL     MW 2328   1.747   1.680   3.248
  710SOL     OW 2329   1.058   0.319   3.438
  710SOL    HW1 2330   1.024   0.358   3.357
  710SOL    HW2 2331   1.036   0.227   3.431
  710SOL     MW 2332   1.051   0.312   3.428
  711SOL     OW 2333   1.467   1.133   3.514
  711SOL    HW1 2334   1.549   1.174   3.544
  711SOL    HW2 2335   1.430   1.095   3.594
  711SOL     MW 2336   1.473   1.134   3.529
  712SOL     OW 2337   0.188   0.220   2.527
  712SOL    HW1 2338   0.179   0.160   2.453
  712SOL    HW2 2339   0.121   0.191   2.590
  712SOL     MW 2340   0.178   0.207   2.525
  713SOL     OW 2341   1.131   1.313   2.088
  713SOL    HW1 2342   1.081   1.315   2.170
  713SOL    HW2 2343   1.065   1.331   2.020
  713SOL     MW 2344   1.117   1.315   2.090
  714SOL     OW 2345   1.722   1.251   3.593
  714SOL    HW1 2346   1.772   1.177   3.625
  714SOL    HW2 2347   1.668   1.278   3.668
  714SOL     MW 2348   1.722   1.245   3.606
  715SOL     OW 2349   0.730   1.146   1.903
  715SOL    HW1 2350   0.652   1.092   1.890
  715SOL    HW2 2351   0.701   1.219   1.956
  715SOL     MW 2352   0.716   1.148   1.908
  716SOL     OW 2353   1.856   0.886   3.095
  716SOL    HW1 2354   1.872   0.924   3.008
  716SOL    HW2 2355   1.890   0.952   3.156
  716SOL     MW 2356   1.863   0.899   3.091
  717SOL     OW 2357   1.311   1.662   1.971
  717SOL    HW1 2358   1.237   1.625   2.021
  717SOL    HW2 2359   1.319   1.752   2.004
  717SOL     MW 2360   1.302   1.669   1.983
  718SOL     OW 2361   0.119   0.668   3.060
  718SOL    HW1 2362   0.181   0.698   3.126
  718SOL    HW2 2363   0.053   0.737   3.054
  718SOL     MW 2364   0.118   0.681   3.067
  719SOL     OW 2365   1.535   1.336   1.913
  719SOL    HW1 2366   1.482   1.385   1.849
  719SOL    HW2 2367   1.566   1.402   1.974
  719SOL     MW 2368   1.533   1.350   1.911
  720SOL     OW 2369   0.214   1.777   3.512
  720SOL    HW1 2370   0.188   1.845   3.450
  720SOL    HW2 2371   0.262   1.714   3.460
  720SOL     MW 2372   0.216   1.777   3.498
  721SOL     OW 2373   0.806   1.000   3.007
  721SOL    HW1 2374   0.834   0.909   3.019
  721SOL    HW2 2375   0.735   0.994   2.943
  721SOL     MW 2376   0.799   0.988   3.002
  722SOL     OW 2377   0.121   0.865   2.425
  722SOL    HW1 2378   0.212   0.880   2.452
  722SOL    HW2 2379   0.124   0.786   2.371
  722SOL     MW 2380   0.133   0.857   2.423
  723SOL     OW 2381   0.357   0.573   3.679
  723SOL    HW1 2382   0.304   0.653   3.686
  723SOL    HW2 2383   0.427   0.585   3.744
  723SOL     MW 2384   0.359   0.586   3.687
  724SOL     OW 2385   0.743   0.123   3.386
  724SOL    HW1 2386   0.720   0.031   3.388
  724SOL    HW2 2387   0.829   0.125   3.343
  724SOL     MW 2388   0.750   0.113   3.382
  725SOL     OW 2389   0.427   0.647   3.425
  725SOL    HW1 2390   0.507   0.697   3.411
  725SOL    HW2 2391   0.418   0.641   3.520
  725SOL     MW 2392   0.436   0.653   3.435
  726SOL     OW 2393   0.748   1.797   2.799
  726SOL    HW1 2394   0.837   1.812   2.829
  726SOL    HW2 2395   0.743   1.844   2.715
  726SOL     MW 2396   0.758   1.805   2.792
  727SOL     OW 2397   1.404   0.172   3.696
  727SOL    HW1 2398   1.460   0.099   3.722
  727SOL    HW2 2399   1.374   0.210   3.778
  727SOL     MW 2400   1.408   0.167   3.709
  728SOL     OW 2401   0.129   1.477   2.464
  728SOL    HW1 2402   0.101   1.516   2.546
  728SOL    HW2 2403   0.149   1.386   2.486
  728SOL     MW 2404   0.127   1.469   2.477
  729SOL     OW 2405   0.962   1.520   2.499
  729SOL    HW1 2406   1.045   1.474   2.483
  729SOL    HW2 2407   0.952   1.519   2.595
  729SOL     MW 2408   0.972   1.513   2.509
  730SOL     OW 2409   1.794   0.665   2.813
  730SOL    HW1 2410   1.883   0.695   2.795
  730SOL    HW2 2411   1.774   0.605   2.742
  730SOL     MW 2412   1.803   0.662   2.802
  731SOL     OW 2413   1.645   0.844   3.693
  731SOL    HW1 2414   1.700   0.768   3.674
  731SOL    HW2 2415   1.647   0.852   3.788
  731SOL     MW 2416   1.653   0.835   3.701
  732SOL     OW 2417   0.695   1.577   1.904
  732SOL    HW1 2418   0.635   1.646   1.874
  732SOL    HW2 2419   0.640   1.519   1.957
  732SOL     MW 2420   0.679   1.579   1.906
  733SOL     OW 2421   1.200   0.744   2.835
  733SOL    HW1 2422   1.213   0.838   2.845
  733SOL    HW2 2423   1.161   0.734   2.749
  733SOL     MW 2424   1.196   0.755   2.825
  734SOL     OW 2425   0.652   0.939   2.639
  734SOL    HW1 2426   0.563   0.930   2.672
  734SOL    HW2 2427   0.656   1.029   2.607
  734SOL     MW 2428   0.641   0.950   2.639
  735SOL     OW 2429   1.451   0.522   2.634
  735SOL    HW1 2430   1.396   0.443   2.633
  735SOL    HW2 2431   1.433   0.563   2.718
  735SOL     MW 2432   1.441   0.517   2.643
  736SOL     OW 2433   0.326   1.621   2.293
  736SOL    HW1 2434   0.287   1.668   2.219
  736SOL    HW2 2435   0.260   1.556   2.318
  736SOL     MW 2436   0.313   1.619   2.287
  737SOL     OW 2437   0.818   1.030   2.317
  737SOL    HW1 2438   0.820   1.004   2.224
  737SOL    HW2 2439   0.876   0.967   2.360
  737SOL     MW 2440   0.826   1.019   2.311
  738SOL     OW 2441   1.371   1.590   3.089
  738SOL    HW1 2442   1.296   1.636   3.127
  738SOL    HW2 2443   1.353   1.497   3.106
  738SOL     MW 2444   1.360   1.584   3.097
  739SOL     OW 2445   1.375   1.798   2.519
  739SOL    HW1 2446   1.318   1.751   2.458
  739SOL    HW2 2447   1.461   1.759   2.506
  739SOL     MW 2448   1.378   1.789   2.509
  740SOL     OW 2449   1.328   0.274   2.650
  740SOL    HW1 2450   1.356   0.206   2.711
  740SOL    HW2 2451   1.242   0.245   2.620
  740SOL     MW 2452   1.321   0.261   2.654
  741SOL     OW 2453   0.133   1.208   2.584
  741SOL    HW1 2454   0.197   1.240   2.647
  741SOL    HW2 2455   0.182   1.144   2.532
  741SOL     MW 2456   0.148   1.204   2.585
  742SOL     OW 2457   0.209   1.526   3.706
  742SOL    HW1 2458   0.265   1.450   3.721
  742SOL    HW2 2459   0.158   1.504   3.628
  742SOL     MW 2460   0.209   1.513   3.697
  743SOL     OW 2461   1.308   0.378   1.985
  743SOL    HW1 2462   1.281   0.444   1.921
  743SOL    HW2 2463   1.378   0.421   2.035
  743SOL     MW 2464   1.313   0.391   1.982
  744SOL     OW 2465   1.481   0.934   2.127
  744SOL    HW1 2466   1.448   1.023   2.117
  744SOL    HW2 2467   1.446   0.905   2.212
  744SOL     MW 2468   1.471   0.943   2.138
  745SOL     OW 2469   0.387   0.031   3.657
  745SOL    HW1 2470   0.315  -0.004   3.605
  745SOL    HW2 2471   0.445   0.072   3.592
  745SOL     MW 2472   0.385   0.032   3.642
  746SOL     OW 2473   0.411   1.521   2.956
  746SOL    HW1 2474   0.456   1.583   3.013
  746SOL    HW2 2475   0.318   1.540   2.969
  746SOL     MW 2476   0.404   1.531   2.963
  747SOL     OW 2477   1.851   1.050   3.310
  747SOL    HW1 2478   1.766   1.063   3.269
  747SOL    HW2 2479   1.831   1.014   3.397
  747SOL     MW 2480   1.838   1.046   3.315
  748SOL     OW 2481   0.475   0.972   1.919
  748SOL    HW1 2482   0.398   0.985   1.975
  748SOL    HW2 2483   0.439   0.936   1.838
  748SOL     MW 2484   0.461   0.968   1.916
  749SOL     OW 2485   1.128   0.945   2.162
  749SOL    HW1 2486   1.038   0.966   2.137
  749SOL    HW2 2487   1.155   1.018   2.218
  749SOL     MW 2488   1.120   0.957   2.165
  750SOL     OW 2489   0.628   1.294   2.854
  750SOL    HW1 2490   0.621   1.273   2.948
  750SOL    HW2 2491   0.546   1.262   2.817
  750SOL     MW 2492   0.616   1.288   2.861
  751SOL     OW 2493   1.492   0.304   3.256
  751SOL    HW1 2494   1.439   0.306   3.336
  751SOL    HW2 2495   1.477   0.217   3.219
  751SOL     MW 2496   1.484   0.294   3.261
  752SOL     OW 2497   1.828   0.228   3.129
  752SOL    HW1 2498   1.809   0.295   3.064
  752SOL    HW2 2499   1.885   0.166   3.084
  752SOL     MW 2500   1.832   0.229   3.115
  753SOL     OW 2501   0.757   0.061   2.569
  753SOL    HW1 2502   0.686   0.122   2.551
  753SOL    HW2 2503   0.808   0.058   2.488
  753SOL     MW 2504   0.753   0.067   2.556
  754SOL     OW 2505   0.515   1.301   2.318
  754SOL    HW1 2506   0.508   1.333   2.408
  754SOL    HW2 2507   0.425   1.285   2.290
  754SOL     MW 2508   0.503   1.303   2.325
  755SOL     OW 2509   1.224   1.659   2.717
  755SOL    HW1 2510   1.271   1.732   2.676
  755SOL    HW2 2511   1.145   1.698   2.753
  755SOL     MW 2512   1.219   1.674   2.716
  756SOL     OW 2513   1.632   1.754   2.992
  756SOL    HW1 2514   1.675   1.724   3.072
  756SOL    HW2 2515   1.551   1.702   2.989
  756SOL     MW 2516   1.627   1.743   3.002
  757SOL     OW 2517   0.717   0.718   3.699
  757SOL    HW1 2518   0.787   0.660   3.671
  757SOL    HW2 2519   0.660   0.663   3.754
  757SOL     MW 2520   0.719   0.705   3.703
  758SOL     OW 2521   1.504   0.930   3.332
  758SOL    HW1 2522   1.509   0.983   3.412
  758SOL    HW2 2523   1.466   0.847   3.360
  758SOL     MW 2524   1.500   0.925   3.347
  759SOL     OW 2525   1.144   0.065   3.578
  759SOL    HW1 2526   1.139  -0.028   3.559
  759SOL    HW2 2527   1.227   0.076   3.624
  759SOL     MW 2528   1.152   0.054   3.582
  760SOL     OW 2529   1.043   0.984   3.223
  760SOL    HW1 2530   1.086   1.019   3.301
  760SOL    HW2 2531   1.026   1.061   3.169
  760SOL     MW 2532   1.046   0.999   3.226
  761SOL     OW 2533   0.434   0.126   2.525
  761SOL    HW1 2534   0.484   0.169   2.456
  761SOL    HW2 2535   0.349   0.170   2.525
  761SOL     MW 2536   0.431   0.139   2.516
  762SOL     OW 2537   0.701   0.515   3.352
  762SOL    HW1 2538   0.673   0.603   3.376
  762SOL    HW2 2539   0.670   0.459   3.423
  762SOL     MW 2540   0.693   0.518   3.364
  763SOL     OW 2541   1.243   0.733   2.071
  763SOL    HW1 2542   1.290   0.751   1.990
  763SOL    HW2 2543   1.209   0.817   2.099
  763SOL     MW 2544   1.245   0.747   2.064
  764SOL     OW 2545   1.496   0.263   2.402
  764SOL    HW1 2546   1.418   0.213   2.427
  764SOL    HW2 2547   1.467   0.354   2.402
  764SOL     MW 2548   1.482   0.267   2.405
  765SOL     OW 2549   1.082   0.225   2.561
  765SOL    HW1 2550   1.102   0.300   2.505
  765SOL    HW2 2551   1.062   0.264   2.646
  765SOL     MW 2552   1.083   0.241   2.565
  766SOL     OW 2553   0.978   1.475   1.893
  766SOL    HW1 2554   1.005   1.553   1.845
  766SOL    HW2 2555   0.885   1.490   1.912
  766SOL     MW 2556   0.969   1.488   1.889
  767SOL     OW 2557   0.063   1.511   2.737
  767SOL    HW1 2558   0.095   1.515   2.828
  767SOL    HW2 2559  -0.032   1.519   2.745
  767SOL     MW 2560   0.055   1.514   2.750
  768SOL     OW 2561   0.018   0.637   2.284
  768SOL    HW1 2562  -0.042   0.609   2.354
  768SOL    HW2 2563   0.092   0.577   2.290
  768SOL     MW 2564   0.020   0.626   2.293
  769SOL     OW 2565   1.586   1.849   3.718
  769SOL    HW1 2566   1.631   1.773   3.683
  769SOL    HW2 2567   1.624   1.862   3.805
  769SOL     MW 2568   1.596   1.842   3.724
  770SOL     OW 2569   1.186   1.368   2.444
  770SOL    HW1 2570   1.209   1.319   2.522
  770SOL    HW2 2571   1.267   1.410   2.416
  770SOL     MW 2572   1.199   1.368   2.451
  771SOL     OW 2573   0.398   0.343   2.909
  771SOL    HW1 2574   0.428   0.257   2.880
  771SOL    HW2 2575   0.303   0.336   2.912
  771SOL     MW 2576   0.390   0.332   2.907
  772SOL     OW 2577   1.227   0.552   3.600
  772SOL    HW1 2578   1.279   0.487   3.553
  772SOL    HW2 2579   1.185   0.603   3.530
  772SOL     MW 2580   1.228   0.549   3.583
  773SOL     OW 2581   1.326   0.347   3.461
  773SOL    HW1 2582   1.233   0.331   3.448
  773SOL    HW2 2583   1.352   0.285   3.529
  773SOL     MW 2584   1.316   0.337   3.468
  774SOL     OW 2585   0.541   0.121   2.800
  774SOL    HW1 2586   0.551   0.030   2.826
  774SOL    HW2 2587   0.497   0.117   2.715
  774SOL     MW 2588   0.537   0.109   2.792
  775SOL     OW 2589   0.635   1.736   3.346
  775SOL    HW1 2590   0.552   1.721   3.391
  775SOL    HW2 2591   0.694   1.669   3.381
  775SOL     MW 2592   0.633   1.726   3.356
  776SOL     OW 2593   1.692   0.443   2.971
  776SOL    HW1 2594   1.625   0.476   3.031
  776SOL    HW2 2595   1.735   0.521   2.937
  776SOL     MW 2596   1.690   0.458   2.975
  777SOL     OW 2597   1.870   1.163   2.941
  777SOL    HW1 2598   1.863   1.103   2.866
  777SOL    HW2 2599   1.796   1.223   2.930
  777SOL     MW 2600   1.860   1.163   2.930
  778SOL     OW 2601   1.335   0.520   3.138
  778SOL    HW1 2602   1.356   0.521   3.045
  778SOL    HW2 2603   1.380   0.442   3.171
  778SOL     MW 2604   1.342   0.510   3.130
  779SOL     OW 2605   1.375   0.949   3.731
  779SOL    HW1 2606   1.441   0.897   3.685
  779SOL    HW2 2607   1.395   0.936   3.824
  779SOL     MW 2608   1.386   0.940   3.738
  780SOL     OW 2609   1.326   0.035   2.080
  780SOL    HW1 2610   1.400   0.079   2.123
  780SOL    HW2 2611   1.250   0.089   2.102
  780SOL     MW 2612   1.326   0.047   2.088
  781SOL     OW 2613   1.386   0.810   2.358
  781SOL    HW1 2614   1.301   0.780   2.328
  781SOL    HW2 2615   1.378   0.817   2.453
  781SOL     MW 2616   1.374   0.808   2.367
  782SOL     OW 2617   0.462   1.273   3.089
  782SOL    HW1 2618   0.474   1.300   3.180
  782SOL    HW2 2619   0.443   1.354   3.042
  782SOL     MW 2620   0.461   1.288   3.094
  783SOL     OW 2621   0.746   0.253   2.912
  783SOL    HW1 2622   0.719   0.255   3.003
  783SOL    HW2 2623   0.676   0.205   2.867
  783SOL     MW 2624   0.734   0.249   2.919
  784SOL     OW 2625   0.600   1.745   3.074
  784SOL    HW1 2626   0.652   1.822   3.051
  784SOL    HW2 2627   0.609   1.737   3.169
  784SOL     MW 2628   0.609   1.752   3.085
  785SOL     OW 2629   1.502   1.330   3.306
  785SOL    HW1 2630   1.487   1.259   3.369
  785SOL    HW2 2631   1.548   1.288   3.234
  785SOL     MW 2632   1.508   1.314   3.306
  786SOL     OW 2633   0.759   0.476   2.084
  786SOL    HW1 2634   0.832   0.525   2.047
  786SOL    HW2 2635   0.775   0.385   2.058
  786SOL     MW 2636   0.771   0.471   2.077
  787SOL     OW 2637   1.567   1.593   3.407
  787SOL    HW1 2638   1.609   1.578   3.492
  787SOL    HW2 2639   1.558   1.506   3.369
  787SOL     MW 2640   1.571   1.581   3.414
  788SOL     OW 2641   1.227   0.072   2.998
  788SOL    HW1 2642   1.282   0.081   2.920
  788SOL    HW2 2643   1.282   0.106   3.069
  788SOL     MW 2644   1.241   0.077   2.997
  789SOL     OW 2645   0.590   1.339   2.041
  789SOL    HW1 2646   0.605   1.315   2.133
  789SOL    HW2 2647   0.498   1.317   2.025
  789SOL     MW 2648   0.580   1.332   2.051
  790SOL     OW 2649   1.129   1.570   2.193
  790SOL    HW1 2650   1.137   1.488   2.144
  790SOL    HW2 2651   1.048   1.609   2.160
  790SOL     MW 2652   1.119   1.565   2.183
  791SOL     OW 2653   0.388   1.728   2.762
  791SOL    HW1 2654   0.392   1.639   2.797
  791SOL    HW2 2655   0.414   1.719   2.671
  791SOL     MW 2656   0.391   1.716   2.754
  792SOL     OW 2657   0.998   0.345   2.826
  792SOL    HW1 2658   0.928   0.297   2.871
  792SOL    HW2 2659   1.030   0.408   2.890
  792SOL     MW 2660   0.993   0.347   2.840
  793SOL     OW 2661   0.649   0.781   3.446
  793SOL    HW1 2662   0.642   0.876   3.434
  793SOL    HW2 2663   0.658   0.770   3.541
  793SOL     MW 2664   0.650   0.793   3.456
  794SOL     OW 2665   1.454   0.059   3.171
  794SOL    HW1 2666   1.525   0.005   3.135
  794SOL    HW2 2667   1.453   0.038   3.264
  794SOL     MW 2668   1.463   0.050   3.179
  795SOL     OW 2669   1.654   1.589   3.655
  795SOL    HW1 2670   1.627   1.586   3.746
  795SOL    HW2 2671   1.750   1.593   3.658
  795SOL     MW 2672   1.664   1.589   3.667
  796SOL     OW 2673   0.465   0.451   2.639
  796SOL    HW1 2674   0.536   0.399   2.602
  796SOL    HW2 2675   0.451   0.416   2.726
  796SOL     MW 2676   0.473   0.440   2.646
  797SOL     OW 2677   0.020   1.786   3.711
  797SOL    HW1 2678   0.070   1.764   3.633
  797SOL    HW2 2679   0.028   1.881   3.719
  797SOL     MW 2680   0.028   1.795   3.702
  798SOL     OW 2681   0.781   1.544   2.715
  798SOL    HW1 2682   0.709   1.481   2.728
  798SOL    HW2 2683   0.742   1.629   2.733
  798SOL     MW 2684   0.765   1.547   2.718
  799SOL     OW 2685   0.186   0.082   2.295
  799SOL    HW1 2686   0.257   0.103   2.234
  799SOL    HW2 2687   0.140   0.010   2.253
  799SOL     MW 2688   0.190   0.076   2.281
  800SOL     OW 2689   0.017   0.549   3.438
  800SOL    HW1 2690   0.081   0.615   3.413
  800SOL    HW2 2691  -0.064   0.576   3.395
  800SOL     MW 2692   0.015   0.561   3.430
  801SOL     OW 2693   1.755   1.456   2.395
  801SOL    HW1 2694   1.725   1.389   2.456
  801SOL    HW2 2695   1.849   1.462   2.409
  801SOL     MW 2696   1.763   1.448   2.405
  802SOL     OW 2697   0.973   0.053   2.378
  802SOL    HW1 2698   1.010   0.112   2.443
  802SOL    HW2 2699   0.950   0.109   2.304
  802SOL     MW 2700   0.974   0.068   2.377
  803SOL     OW 2701   1.826   0.935   2.800
  803SOL    HW1 2702   1.817   0.967   2.711
  803SOL    HW2 2703   1.779   0.851   2.800
  803SOL     MW 2704   1.819   0.928   2.790
  804SOL     OW 2705   0.202   0.775   3.379
  804SOL    HW1 2706   0.223   0.844   3.317
  804SOL    HW2 2707   0.282   0.722   3.384
  804SOL     MW 2708   0.215   0.776   3.373
  805SOL     OW 2709   1.738   0.866   2.501
  805SOL    HW1 2710   1.832   0.855   2.489
  805SOL    HW2 2711   1.714   0.938   2.442
  805SOL     MW 2712   1.748   0.874   2.492
  806SOL     OW 2713   0.394   0.744   2.274
  806SOL    HW1 2714   0.394   0.839   2.259
  806SOL    HW2 2715   0.471   0.728   2.328
  806SOL     MW 2716   0.404   0.755   2.279
  807SOL     OW 2717   1.170   0.603   3.338
  807SOL    HW1 2718   1.206   0.576   3.254
  807SOL    HW2 2719   1.083   0.637   3.317
  807SOL     MW 2720   1.164   0.604   3.325
  808SOL     OW 2721   1.700   1.815   2.095
  808SOL    HW1 2722   1.767   1.848   2.035
  808SOL    HW2 2723   1.657   1.894   2.129
  808SOL     MW 2724   1.702   1.830   2.091
  809SOL     OW 2725   0.835   0.736   3.047
  809SOL    HW1 2726   0.793   0.654   3.023
  809SOL    HW2 2727   0.836   0.735   3.143
  809SOL     MW 2728   0.828   0.725   3.056
  810SOL     OW 2729   1.434   0.059   2.769
  810SOL    HW1 2730   1.522   0.068   2.806
  810SOL    HW2 2731   1.444   0.000   2.695
  810SOL     MW 2732   1.448   0.053   2.763
  811SOL     OW 2733   1.466   0.798   2.613
  811SOL    HW1 2734   1.546   0.813   2.562
  811SOL    HW2 2735   1.459   0.703   2.619
  811SOL     MW 2736   1.475   0.787   2.608
  812SOL     OW 2737   0.606   1.847   1.963
  812SOL    HW1 2738   0.511   1.847   1.955
  812SOL    HW2 2739   0.622   1.793   2.041
  812SOL     MW 2740   0.596   1.841   1.972
  813SOL     OW 2741   0.334   1.024   3.558
  813SOL    HW1 2742   0.288   0.940   3.560
  813SOL    HW2 2743   0.391   1.018   3.482
  813SOL     MW 2744   0.336   1.012   3.550
  814SOL     OW 2745   1.451   0.667   1.879
  814SOL    HW1 2746   1.379   0.643   1.821
  814SOL    HW2 2747   1.517   0.704   1.821
  814SOL     MW 2748   1.450   0.669   1.864
  815SOL     OW 2749   0.585   1.399   2.559
  815SOL    HW1 2750   0.650   1.332   2.580
  815SOL    HW2 2751   0.637   1.476   2.536
  815SOL     MW 2752   0.600   1.401   2.558
  816SOL     OW 2753   0.846   0.564   2.689
  816SOL    HW1 2754   0.786   0.582   2.761
  816SOL    HW2 2755   0.880   0.476   2.708
  816SOL     MW 2756   0.842   0.554   2.702
  817SOL     OW 2757   1.787   0.063   3.358
  817SOL    HW1 2758   1.708   0.109   3.386
  817SOL    HW2 2759   1.822   0.117   3.287
  817SOL     MW 2760   1.781   0.076   3.352
  818SOL     OW 2761   1.071   1.147   2.708
  818SOL    HW1 2762   1.163   1.128   2.726
  818SOL    HW2 2763   1.044   1.077   2.648
  818SOL     MW 2764   1.079   1.135   2.702
  819SOL     OW 2765   0.864   0.967   2.063
  819SOL    HW1 2766   0.850   0.879   2.028
  819SOL    HW2 2767   0.815   1.024   2.004
  819SOL     MW 2768   0.856   0.962   2.051
  820SOL     OW 2769   1.345   1.385   2.804
  820SOL    HW1 2770   1.318   1.469   2.769
  820SOL    HW2 2771   1.305   1.380   2.891
  820SOL     MW 2772   1.338   1.394   2.810
  821SOL     OW 2773   1.264   1.333   3.072
  821SOL    HW1 2774   1.275   1.300   3.161
  821SOL    HW2 2775   1.183   1.292   3.041
  821SOL     MW 2776   1.254   1.325   3.078
  822SOL     OW 2777   0.277   0.691   2.842
  822SOL    HW1 2778   0.227   0.690   2.923
  822SOL    HW2 2779   0.297   0.783   2.826
  822SOL     MW 2780   0.273   0.703   2.850
  823SOL     OW 2781   1.344   1.455   3.604
  823SOL    HW1 2782   1.344   1.549   3.620
  823SOL    HW2 2783   1.389   1.445   3.520
  823SOL     MW 2784   1.350   1.465   3.595
  824SOL     OW 2785   1.583   0.173   2.165
  824SOL    HW1 2786   1.576   0.177   2.260
  824SOL    HW2 2787   1.595   0.264   2.138
  824SOL     MW 2788   1.584   0.186   2.173
  825SOL     OW 2789   0.872   0.736   2.279
  825SOL    HW1 2790   0.852   0.722   2.186
  825SOL    HW2 2791   0.965   0.715   2.286
  825SOL     MW 2792   0.882   0.731   2.268
  826SOL     OW 2793   0.199   0.359   3.583
  826SOL    HW1 2794   0.156   0.418   3.520
  826SOL    HW2 2795   0.267   0.414   3.623
  826SOL     MW 2796   0.203   0.374   3.580
  827SOL     OW 2797   1.311   0.979   3.128
  827SOL    HW1 2798   1.374   0.976   3.201
  827SOL    HW2 2799   1.227   0.997   3.170
  827SOL     MW 2800   1.307   0.981   3.143
  828SOL     OW 2801   1.650   0.156   2.907
  828SOL    HW1 2802   1.695   0.074   2.926
  828SOL    HW2 2803   1.670   0.212   2.983
  828SOL     MW 2804   1.660   0.152   2.919
  829SOL     OW 2805   0.098  -0.001   3.006
  829SOL    HW1 2806   0.089   0.000   2.911
  829SOL    HW2 2807   0.192   0.011   3.021
  829SOL     MW 2808   0.110   0.002   2.997
  830SOL     OW 2809   0.311   0.126   2.052
  830SOL    HW1 2810   0.240   0.181   2.020
  830SOL    HW2 2811   0.353   0.092   1.973
  830SOL     MW 2812   0.307   0.128   2.038
  831SOL     OW 2813   1.435   0.623   2.888
  831SOL    HW1 2814   1.358   0.669   2.854
  831SOL    HW2 2815   1.492   0.692   2.922
  831SOL     MW 2816   1.432   0.638   2.888
  832SOL     OW 2817   0.067   0.225   1.901
  832SOL    HW1 2818   0.034   0.304   1.945
  832SOL    HW2 2819   0.122   0.258   1.830
  832SOL     MW 2820   0.070   0.239   1.898
  833SOL     OW 2821   0.101   1.482   2.090
  833SOL    HW1 2822   0.118   1.566   2.132
  833SOL    HW2 2823   0.136   1.491   2.002
  833SOL     MW 2824   0.106   1.495   2.084
  834SOL     OW 2825   1.373   1.571   2.307
  834SOL    HW1 2826   1.436   1.561   2.236
  834SOL    HW2 2827   1.290   1.591   2.262
  834SOL     MW 2828   1.370   1.572   2.292
  835SOL     OW 2829   1.736   0.839   3.993
  835SOL    HW1 2830   1.777   0.781   4.058
  835SOL    HW2 2831   1.643   0.831   4.010
  835SOL     MW 2832   1.730   0.831   4.003
  836SOL     OW 2833   1.646   1.725   4.364
  836SOL    HW1 2834   1.658   1.671   4.442
  836SOL    HW2 2835   1.683   1.673   4.293
  836SOL     MW 2836   1.652   1.710   4.365
  837SOL     OW 2837   1.582   1.165   4.969
  837SOL    HW1 2838   1.503   1.130   4.927
  837SOL    HW2 2839   1.609   1.237   4.913
  837SOL     MW 2840   1.575   1.170   4.956
  838SOL     OW 2841   0.814   0.478   4.235
  838SOL    HW1 2842   0.789   0.566   4.263
  838SOL    HW2 2843   0.811   0.481   4.139
  838SOL     MW 2844   0.810   0.490   4.227
  839SOL     OW 2845   0.256   0.506   4.163
  839SOL    HW1 2846   0.288   0.594   4.145
  839SOL    HW2 2847   0.244   0.504   4.258
  839SOL     MW 2848   0.259   0.518   4.175
  840SOL     OW 2849   0.655   0.261   4.250
  840SOL    HW1 2850   0.713   0.337   4.252
  840SOL    HW2 2851   0.590   0.282   4.183
  840SOL     MW 2852   0.654   0.273   4.241
  841SOL     OW 2853   0.767   1.529   5.328
  841SOL    HW1 2854   0.851   1.555   5.367
  841SOL    HW2 2855   0.791   1.473   5.254
  841SOL     MW 2856   0.781   1.525   5.323
  842SOL     OW 2857   0.519   0.692   4.416
  842SOL    HW1 2858   0.504   0.612   4.467
  842SOL    HW2 2859   0.601   0.727   4.450
  842SOL     MW 2860   0.527   0.684   4.428
  843SOL     OW 2861   0.661   0.518   4.793
  843SOL    HW1 2862   0.567   0.514   4.811
  843SOL    HW2 2863   0.691   0.427   4.802
  843SOL     MW 2864   0.652   0.506   4.796
  844SOL     OW 2865   0.407   0.932   4.697
  844SOL    HW1 2866   0.362   0.939   4.613
  844SOL    HW2 2867   0.387   1.015   4.741
  844SOL     MW 2868   0.399   0.944   4.691
  845SOL     OW 2869   0.104   1.778   4.572
  845SOL    HW1 2870   0.193   1.770   4.607
  845SOL    HW2 2871   0.068   1.690   4.577
  845SOL     MW 2872   0.111   1.765   4.577
  846SOL     OW 2873   1.369   1.170   3.941
  846SOL    HW1 2874   1.287   1.206   3.907
  846SOL    HW2 2875   1.437   1.213   3.890
  846SOL     MW 2876   1.367   1.180   3.929
  847SOL     OW 2877   0.338   1.601   5.202
  847SOL    HW1 2878   0.246   1.577   5.187
  847SOL    HW2 2879   0.382   1.518   5.219
  847SOL     MW 2880   0.332   1.586   5.201
  848SOL     OW 2881   0.921   1.311   4.134
  848SOL    HW1 2882   0.898   1.373   4.202
  848SOL    HW2 2883   0.878   1.229   4.160
  848SOL     MW 2884   0.913   1.307   4.145
  849SOL     OW 2885   0.418   0.284   4.102
  849SOL    HW1 2886   0.392   0.246   4.018
  849SOL    HW2 2887   0.355   0.354   4.118
  849SOL     MW 2888   0.407   0.287   4.093
  850SOL     OW 2889   0.253   1.245   4.139
  850SOL    HW1 2890   0.201   1.313   4.095
  850SOL    HW2 2891   0.250   1.171   4.079
  850SOL     MW 2892   0.245   1.244   4.126
  851SOL     OW 2893   0.915   1.708   3.917
  851SOL    HW1 2894   0.870   1.724   4.000
  851SOL    HW2 2895   0.846   1.673   3.859
  851SOL     MW 2896   0.901   1.705   3.919
  852SOL     OW 2897   1.850   0.481   3.892
  852SOL    HW1 2898   1.759   0.483   3.920
  852SOL    HW2 2899   1.895   0.543   3.950
  852SOL     MW 2900   1.843   0.489   3.902
  853SOL     OW 2901   1.595   1.084   4.242
  853SOL    HW1 2902   1.505   1.084   4.277
  853SOL    HW2 2903   1.588   1.130   4.159
  853SOL     MW 2904   1.582   1.090   4.236
  854SOL     OW 2905   0.136   1.599   4.866
  854SOL    HW1 2906   0.119   1.545   4.943
  854SOL    HW2 2907   0.124   1.689   4.896
  854SOL     MW 2908   0.133   1.603   4.880
  855SOL     OW 2909   1.502   1.062   4.634
  855SOL    HW1 2910   1.505   0.996   4.565
  855SOL    HW2 2911   1.587   1.105   4.630
  855SOL     MW 2912   1.514   1.058   4.625
  856SOL     OW 2913   1.122   0.665   4.203
  856SOL    HW1 2914   1.148   0.689   4.114
  856SOL    HW2 2915   1.104   0.572   4.199
  856SOL     MW 2916   1.124   0.657   4.190
  857SOL     OW 2917   1.787   1.285   4.054
  857SOL    HW1 2918   1.743   1.326   4.129
  857SOL    HW2 2919   1.844   1.353   4.019
  857SOL     MW 2920   1.789   1.299   4.059
  858SOL     OW 2921   0.443   1.701   4.372
  858SOL    HW1 2922   0.475   1.789   4.350
  858SOL    HW2 2923   0.396   1.673   4.294
  858SOL     MW 2924   0.442   1.709   4.359
  859SOL     OW 2925   0.159   1.761   3.949
  859SOL    HW1 2926   0.188   1.851   3.941
  859SOL    HW2 2927   0.109   1.744   3.870
  859SOL     MW 2928   0.157   1.769   3.938
  860SOL     OW 2929   0.946   0.016   4.834
  860SOL    HW1 2930   0.905   0.094   4.796
  860SOL    HW2 2931   1.040   0.034   4.829
  860SOL     MW 2932   0.952   0.028   4.829
  861SOL     OW 2933   0.961   0.694   3.864
  861SOL    HW1 2934   0.963   0.641   3.785
  861SOL    HW2 2935   1.049   0.731   3.870
  861SOL     MW 2936   0.973   0.693   3.853
  862SOL     OW 2937   1.575   0.620   4.200
  862SOL    HW1 2938   1.614   0.620   4.287
  862SOL    HW2 2939   1.516   0.696   4.200
  862SOL     MW 2940   1.572   0.631   4.211
  863SOL     OW 2941   0.188   0.220   4.395
  863SOL    HW1 2942   0.179   0.160   4.321
  863SOL    HW2 2943   0.121   0.191   4.458
  863SOL     MW 2944   0.178   0.207   4.393
  864SOL     OW 2945   0.135   0.393   4.758
  864SOL    HW1 2946   0.107   0.484   4.767
  864SOL    HW2 2947   0.072   0.354   4.697
  864SOL     MW 2948   0.122   0.399   4.752
  865SOL     OW 2949   0.594   1.731   4.064
  865SOL    HW1 2950   0.515   1.689   4.097
  865SOL    HW2 2951   0.660   1.714   4.131
  865SOL     MW 2952   0.593   1.723   4.077
  866SOL     OW 2953   0.730   1.146   3.771
  866SOL    HW1 2954   0.652   1.092   3.758
  866SOL    HW2 2955   0.701   1.219   3.824
  866SOL     MW 2956   0.716   1.148   3.776
  867SOL     OW 2957   1.648   1.595   4.632
  867SOL    HW1 2958   1.677   1.662   4.693
  867SOL    HW2 2959   1.629   1.519   4.687
  867SOL     MW 2960   1.650   1.595   4.647
  868SOL     OW 2961   0.119   0.668   4.928
  868SOL    HW1 2962   0.181   0.698   4.994
  868SOL    HW2 2963   0.053   0.737   4.922
  868SOL     MW 2964   0.118   0.681   4.935
  869SOL     OW 2965   1.535   1.336   3.781
  869SOL    HW1 2966   1.482   1.385   3.717
  869SOL    HW2 2967   1.566   1.402   3.842
  869SOL     MW 2968   1.533   1.350   3.779
  870SOL     OW 2969   0.760   0.225   3.836
  870SOL    HW1 2970   0.708   0.145   3.824
  870SOL    HW2 2971   0.847   0.202   3.804
  870SOL     MW 2972   0.763   0.211   3.830
  871SOL     OW 2973   0.121   0.865   4.293
  871SOL    HW1 2974   0.212   0.880   4.320
  871SOL    HW2 2975   0.124   0.786   4.239
  871SOL     MW 2976   0.133   0.857   4.291
  872SOL     OW 2977   0.748   1.797   4.667
  872SOL    HW1 2978   0.837   1.812   4.697
  872SOL    HW2 2979   0.743   1.844   4.583
  872SOL     MW 2980   0.758   1.805   4.660
  873SOL     OW 2981   0.962   1.520   4.367
  873SOL    HW1 2982   1.045   1.474   4.351
  873SOL    HW2 2983   0.952   1.519   4.463
  873SOL     MW 2984   0.972   1.513   4.377
  874SOL     OW 2985   1.794   0.665   4.681
  874SOL    HW1 2986   1.883   0.695   4.663
  874SOL    HW2 2987   1.774   0.605   4.610
  874SOL     MW 2988   1.803   0.662   4.670
  875SOL     OW 2989   0.695   1.577   3.772
  875SOL    HW1 2990   0.635   1.646   3.742
  875SOL    HW2 2991   0.640   1.519   3.825
  875SOL     MW 2992   0.679   1.579   3.774
  876SOL     OW 2993   1.200   0.744   4.703
  876SOL    HW1 2994   1.213   0.838   4.713
  876SOL    HW2 2995   1.161   0.734   4.617
  876SOL     MW 2996   1.196   0.755   4.693
  877SOL     OW 2997   0.652   0.939   4.507
  877SOL    HW1 2998   0.563   0.930   4.540
  877SOL    HW2 2999   0.656   1.029   4.475
  877SOL     MW 3000   0.641   0.950   4.507
  878SOL     OW 3001   0.326   1.621   4.161
  878SOL    HW1 3002   0.287   1.668   4.087
  878SOL    HW2 3003   0.260   1.556   4.186
  878SOL     MW 3004   0.313   1.619   4.155
  879SOL     OW 3005   0.818   1.030   4.185
  879SOL    HW1 3006   0.820   1.004   4.092
  879SOL    HW2 3007   0.876   0.967   4.228
  879SOL     MW 3008   0.826   1.019   4.179
  880SOL     OW 3009   1.308   0.378   3.853
  880SOL    HW1 3010   1.281   0.444   3.789
  880SOL    HW2 3011   1.378   0.421   3.903
  880SOL     MW 3012   1.313   0.391   3.850
  881SOL     OW 3013   1.481   0.934   3.995
  881SOL    HW1 3014   1.448   1.023   3.985
  881SOL    HW2 3015   1.446   0.905   4.080
  881SOL     MW 3016   1.471   0.943   4.006
  882SOL     OW 3017   0.411   1.521   4.824
  882SOL    HW1 3018   0.456   1.583   4.881
  882SOL    HW2 3019   0.318   1.540   4.837
  882SOL     MW 3020   0.404   1.531   4.831
  883SOL     OW 3021   0.475   0.972   3.787
  883SOL    HW1 3022   0.398   0.985   3.843
  883SOL    HW2 3023   0.439   0.936   3.706
  883SOL     MW 3024   0.461   0.968   3.784
  884SOL     OW 3025   1.128   0.945   4.030
  884SOL    HW1 3026   1.038   0.966   4.005
  884SOL    HW2 3027   1.155   1.018   4.086
  884SOL     MW 3028   1.120   0.957   4.033
  885SOL     OW 3029   0.628   1.294   4.722
  885SOL    HW1 3030   0.621   1.273   4.816
  885SOL    HW2 3031   0.546   1.262   4.685
  885SOL     MW 3032   0.616   1.288   4.729
  886SOL     OW 3033   0.757   0.061   4.437
  886SOL    HW1 3034   0.686   0.122   4.419
  886SOL    HW2 3035   0.808   0.058   4.356
  886SOL     MW 3036   0.753   0.067   4.424
  887SOL     OW 3037   1.110   1.694   5.095
  887SOL    HW1 3038   1.030   1.679   5.045
  887SOL    HW2 3039   1.117   1.789   5.102
  887SOL     MW 3040   1.101   1.705   5.089
  888SOL     OW 3041   1.632   1.754   4.860
  888SOL    HW1 3042   1.675   1.724   4.940
  888SOL    HW2 3043   1.551   1.702   4.857
  888SOL     MW 3044   1.627   1.743   4.870
  889SOL     OW 3045   0.518   0.585   3.900
  889SOL    HW1 3046   0.484   0.641   3.970
  889SOL    HW2 3047   0.589   0.535   3.940
  889SOL     MW 3048   0.524   0.586   3.914
  890SOL     OW 3049   1.614   1.336   4.722
  890SOL    HW1 3050   1.649   1.318   4.635
  890SOL    HW2 3051   1.519   1.337   4.709
  890SOL     MW 3052   1.606   1.333   4.709
  891SOL     OW 3053   1.574   0.471   3.964
  891SOL    HW1 3054   1.566   0.542   3.901
  891SOL    HW2 3055   1.592   0.515   4.047
  891SOL     MW 3056   1.575   0.485   3.966
  892SOL     OW 3057   0.434   0.126   4.393
  892SOL    HW1 3058   0.484   0.169   4.324
  892SOL    HW2 3059   0.349   0.170   4.393
  892SOL     MW 3060   0.431   0.139   4.384
  893SOL     OW 3061   1.243   0.733   3.939
  893SOL    HW1 3062   1.290   0.751   3.858
  893SOL    HW2 3063   1.209   0.817   3.967
  893SOL     MW 3064   1.245   0.747   3.932
  894SOL     OW 3065   0.356   0.911   4.433
  894SOL    HW1 3066   0.414   0.967   4.381
  894SOL    HW2 3067   0.400   0.826   4.435
  894SOL     MW 3068   0.369   0.908   4.426
  895SOL     OW 3069   1.496   0.263   4.270
  895SOL    HW1 3070   1.418   0.213   4.295
  895SOL    HW2 3071   1.467   0.354   4.270
  895SOL     MW 3072   1.482   0.267   4.273
  896SOL     OW 3073   0.978   1.475   3.761
  896SOL    HW1 3074   1.005   1.553   3.713
  896SOL    HW2 3075   0.885   1.490   3.780
  896SOL     MW 3076   0.969   1.488   3.757
  897SOL     OW 3077   0.063   1.511   4.605
  897SOL    HW1 3078   0.095   1.515   4.696
  897SOL    HW2 3079  -0.032   1.519   4.613
  897SOL     MW 3080   0.055   1.514   4.618
  898SOL     OW 3081   0.018   0.637   4.152
  898SOL    HW1 3082  -0.042   0.609   4.222
  898SOL    HW2 3083   0.092   0.577   4.158
  898SOL     MW 3084   0.020   0.626   4.161
  899SOL     OW 3085   0.444   0.376   5.041
  899SOL    HW1 3086   0.477   0.457   5.081
  899SOL    HW2 3087   0.417   0.402   4.953
  899SOL     MW 3088   0.443   0.390   5.035
  900SOL     OW 3089   0.398   0.343   4.777
  900SOL    HW1 3090   0.428   0.257   4.748
  900SOL    HW2 3091   0.303   0.336   4.780
  900SOL     MW 3092   0.390   0.332   4.775
  901SOL     OW 3093   0.541   0.121   4.668
  901SOL    HW1 3094   0.551   0.030   4.694
  901SOL    HW2 3095   0.497   0.117   4.583
  901SOL     MW 3096   0.537   0.109   4.660
  902SOL     OW 3097   1.252   1.025   4.727
  902SOL    HW1 3098   1.266   0.997   4.818
  902SOL    HW2 3099   1.338   1.056   4.699
  902SOL     MW 3100   1.265   1.026   4.736
  903SOL     OW 3101   1.386   0.810   4.226
  903SOL    HW1 3102   1.301   0.780   4.196
  903SOL    HW2 3103   1.378   0.817   4.321
  903SOL     MW 3104   1.374   0.808   4.235
  904SOL     OW 3105   0.576   1.061   5.291
  904SOL    HW1 3106   0.613   1.066   5.203
  904SOL    HW2 3107   0.615   1.134   5.338
  904SOL     MW 3108   0.586   1.071   5.286
  905SOL     OW 3109   0.759   0.476   3.952
  905SOL    HW1 3110   0.832   0.525   3.915
  905SOL    HW2 3111   0.775   0.385   3.926
  905SOL     MW 3112   0.771   0.471   3.945
  906SOL     OW 3113   1.227   0.072   4.866
  906SOL    HW1 3114   1.282   0.081   4.788
  906SOL    HW2 3115   1.282   0.106   4.937
  906SOL     MW 3116   1.241   0.077   4.865
  907SOL     OW 3117   0.234   0.985   4.050
  907SOL    HW1 3118   0.171   1.001   3.979
  907SOL    HW2 3119   0.181   0.948   4.121
  907SOL     MW 3120   0.219   0.982   4.050
  908SOL     OW 3121   0.590   1.339   3.909
  908SOL    HW1 3122   0.605   1.315   4.001
  908SOL    HW2 3123   0.498   1.317   3.893
  908SOL     MW 3124   0.580   1.332   3.919
  909SOL     OW 3125   0.388   1.728   4.630
  909SOL    HW1 3126   0.392   1.639   4.665
  909SOL    HW2 3127   0.414   1.719   4.539
  909SOL     MW 3128   0.391   1.716   4.622
  910SOL     OW 3129   1.005   1.206   4.873
  910SOL    HW1 3130   0.937   1.140   4.889
  910SOL    HW2 3131   1.023   1.200   4.780
  910SOL     MW 3132   0.998   1.197   4.864
  911SOL     OW 3133   0.465   0.451   4.507
  911SOL    HW1 3134   0.536   0.399   4.470
  911SOL    HW2 3135   0.451   0.416   4.594
  911SOL     MW 3136   0.473   0.440   4.514
  912SOL     OW 3137   0.781   1.544   4.583
  912SOL    HW1 3138   0.709   1.481   4.596
  912SOL    HW2 3139   0.742   1.629   4.601
  912SOL     MW 3140   0.765   1.547   4.586
  913SOL     OW 3141   1.755   1.456   4.263
  913SOL    HW1 3142   1.725   1.389   4.324
  913SOL    HW2 3143   1.849   1.462   4.277
  913SOL     MW 3144   1.763   1.448   4.273
  914SOL     OW 3145   1.311   1.133   4.193
  914SOL    HW1 3146   1.283   1.219   4.226
  914SOL    HW2 3147   1.339   1.149   4.103
  914SOL     MW 3148   1.311   1.147   4.185
  915SOL     OW 3149   0.202   0.775   5.247
  915SOL    HW1 3150   0.223   0.844   5.185
  915SOL    HW2 3151   0.282   0.722   5.252
  915SOL     MW 3152   0.215   0.776   5.241
  916SOL     OW 3153   0.153   0.475   4.431
  916SOL    HW1 3154   0.215   0.482   4.504
  916SOL    HW2 3155   0.153   0.382   4.408
  916SOL     MW 3156   0.161   0.464   4.438
  917SOL     OW 3157   1.700   1.815   3.963
  917SOL    HW1 3158   1.767   1.848   3.903
  917SOL    HW2 3159   1.657   1.894   3.997
  917SOL     MW 3160   1.702   1.830   3.959
  918SOL     OW 3161   0.835   0.736   4.915
  918SOL    HW1 3162   0.793   0.654   4.891
  918SOL    HW2 3163   0.836   0.735   5.011
  918SOL     MW 3164   0.828   0.725   4.924
  919SOL     OW 3165   1.466   0.798   4.481
  919SOL    HW1 3166   1.546   0.813   4.430
  919SOL    HW2 3167   1.459   0.703   4.487
  919SOL     MW 3168   1.475   0.787   4.476
  920SOL     OW 3169   0.606   1.847   3.831
  920SOL    HW1 3170   0.511   1.847   3.823
  920SOL    HW2 3171   0.622   1.793   3.909
  920SOL     MW 3172   0.596   1.841   3.840
  921SOL     OW 3173   1.451   0.667   3.747
  921SOL    HW1 3174   1.379   0.643   3.689
  921SOL    HW2 3175   1.517   0.704   3.689
  921SOL     MW 3176   1.450   0.669   3.732
  922SOL     OW 3177   0.585   1.399   4.427
  922SOL    HW1 3178   0.650   1.332   4.448
  922SOL    HW2 3179   0.637   1.476   4.404
  922SOL     MW 3180   0.600   1.401   4.426
  923SOL     OW 3181   0.846   0.564   4.557
  923SOL    HW1 3182   0.786   0.582   4.629
  923SOL    HW2 3183   0.880   0.476   4.576
  923SOL     MW 3184   0.842   0.554   4.570
  924SOL     OW 3185   1.071   1.147   4.576
  924SOL    HW1 3186   1.163   1.128   4.594
  924SOL    HW2 3187   1.044   1.077   4.516
  924SOL     MW 3188   1.079   1.135   4.570
  925SOL     OW 3189   0.864   0.967   3.931
  925SOL    HW1 3190   0.850   0.879   3.896
  925SOL    HW2 3191   0.815   1.024   3.872
  925SOL     MW 3192   0.856   0.962   3.919
  926SOL     OW 3193   1.345   1.385   4.672
  926SOL    HW1 3194   1.318   1.469   4.637
  926SOL    HW2 3195   1.305   1.380   4.759
  926SOL     MW 3196   1.338   1.394   4.678
  927SOL     OW 3197   1.264   1.333   4.940
  927SOL    HW1 3198   1.275   1.300   5.029
  927SOL    HW2 3199   1.183   1.292   4.909
  927SOL     MW 3200   1.254   1.325   4.946
  928SOL     OW 3201   0.277   0.691   4.710
  928SOL    HW1 3202   0.227   0.690   4.791
  928SOL    HW2 3203   0.297   0.783   4.694
  928SOL     MW 3204   0.273   0.703   4.718
  929SOL     OW 3205   1.583   0.173   4.033
  929SOL    HW1 3206   1.576   0.177   4.128
  929SOL    HW2 3207   1.595   0.264   4.006
  929SOL     MW 3208   1.584   0.186   4.041
  930SOL     OW 3209   0.872   0.736   4.147
  930SOL    HW1 3210   0.852   0.722   4.054
  930SOL    HW2 3211   0.965   0.715   4.154
  930SOL     MW 3212   0.882   0.731   4.136
  931SOL     OW 3213   1.311   0.979   4.996
  931SOL    HW1 3214   1.374   0.976   5.069
  931SOL    HW2 3215   1.227   0.997   5.038
  931SOL     MW 3216   1.307   0.981   5.011
  932SOL     OW 3217   0.855   1.694   4.185
  932SOL    HW1 3218   0.913   1.765   4.212
  932SOL    HW2 3219   0.878   1.622   4.243
  932SOL     MW 3220   0.866   1.694   4.196
  933SOL     OW 3221   1.650   0.156   4.775
  933SOL    HW1 3222   1.695   0.074   4.794
  933SOL    HW2 3223   1.670   0.212   4.851
  933SOL     MW 3224   1.660   0.152   4.787
  934SOL     OW 3225   0.098  -0.001   4.874
  934SOL    HW1 3226   0.089   0.000   4.779
  934SOL    HW2 3227   0.192   0.011   4.889
  934SOL     MW 3228   0.110   0.002   4.865
  935SOL     OW 3229   0.311   0.126   3.920
  935SOL    HW1 3230   0.240   0.181   3.888
  935SOL    HW2 3231   0.353   0.092   3.841
  935SOL     MW 3232   0.307   0.128   3.906
  936SOL     OW 3233   0.067   0.225   3.769
  936SOL    HW1 3234   0.034   0.304   3.813
  936SOL    HW2 3235   0.122   0.258   3.698
  936SOL     MW 3236   0.070   0.239   3.766
  937SOL     OW 3237   0.101   1.482   3.958
  937SOL    HW1 3238   0.118   1.566   4.000
  937SOL    HW2 3239   0.136   1.491   3.870
  937SOL     MW 3240   0.106   1.495   3.952
  938SOL     OW 3241   1.736   2.707   0.257
  938SOL    HW1 3242   1.777   2.649   0.322
  938SOL    HW2 3243   1.643   2.699   0.274
  938SOL     MW 3244   1.730   2.699   0.267
  939SOL     OW 3245   0.530   2.890   0.486
  939SOL    HW1 3246   0.620   2.865   0.470
  939SOL    HW2 3247   0.526   2.983   0.463
  939SOL     MW 3248   0.542   2.899   0.481
  940SOL     OW 3249   1.646   3.593   0.628
  940SOL    HW1 3250   1.658   3.539   0.706
  940SOL    HW2 3251   1.683   3.541   0.557
  940SOL     MW 3252   1.652   3.578   0.629
  941SOL     OW 3253   1.025   3.478   1.629
  941SOL    HW1 3254   1.066   3.514   1.550
  941SOL    HW2 3255   1.060   3.389   1.636
  941SOL     MW 3256   1.036   3.471   1.620
  942SOL     OW 3257   0.334   2.787   1.328
  942SOL    HW1 3258   0.397   2.734   1.279
  942SOL    HW2 3259   0.315   2.861   1.271
  942SOL     MW 3260   0.340   2.789   1.315
  943SOL     OW 3261   0.655   2.129   0.514
  943SOL    HW1 3262   0.713   2.205   0.516
  943SOL    HW2 3263   0.590   2.150   0.447
  943SOL     MW 3264   0.654   2.141   0.505
  944SOL     OW 3265   0.104   3.646   0.836
  944SOL    HW1 3266   0.193   3.638   0.871
  944SOL    HW2 3267   0.068   3.558   0.841
  944SOL     MW 3268   0.111   3.633   0.841
  945SOL     OW 3269   1.369   3.038   0.205
  945SOL    HW1 3270   1.287   3.074   0.171
  945SOL    HW2 3271   1.437   3.081   0.154
  945SOL     MW 3272   1.367   3.048   0.193
  946SOL     OW 3273   0.368   3.173   0.871
  946SOL    HW1 3274   0.344   3.226   0.947
  946SOL    HW2 3275   0.424   3.231   0.819
  946SOL     MW 3276   0.372   3.188   0.874
  947SOL     OW 3277   0.921   3.179   0.398
  947SOL    HW1 3278   0.898   3.241   0.466
  947SOL    HW2 3279   0.878   3.097   0.424
  947SOL     MW 3280   0.913   3.175   0.409
  948SOL     OW 3281   1.794   2.180   0.854
  948SOL    HW1 3282   1.731   2.160   0.923
  948SOL    HW2 3283   1.784   2.109   0.791
  948SOL     MW 3284   1.784   2.167   0.855
  949SOL     OW 3285   0.418   2.152   0.366
  949SOL    HW1 3286   0.392   2.114   0.282
  949SOL    HW2 3287   0.355   2.222   0.382
  949SOL     MW 3288   0.407   2.155   0.357
  950SOL     OW 3289   0.253   3.113   0.403
  950SOL    HW1 3290   0.201   3.181   0.359
  950SOL    HW2 3291   0.250   3.039   0.343
  950SOL     MW 3292   0.245   3.112   0.390
  951SOL     OW 3293   0.915   3.576   0.181
  951SOL    HW1 3294   0.870   3.592   0.264
  951SOL    HW2 3295   0.846   3.541   0.123
  951SOL     MW 3296   0.901   3.573   0.183
  952SOL     OW 3297   1.595   2.952   0.506
  952SOL    HW1 3298   1.505   2.952   0.541
  952SOL    HW2 3299   1.588   2.998   0.423
  952SOL     MW 3300   1.582   2.958   0.500
  953SOL     OW 3301   1.131   2.974   1.570
  953SOL    HW1 3302   1.116   3.067   1.555
  953SOL    HW2 3303   1.226   2.964   1.570
  953SOL     MW 3304   1.140   2.984   1.567
  954SOL     OW 3305   0.927   2.398   1.771
  954SOL    HW1 3306   1.017   2.399   1.738
  954SOL    HW2 3307   0.886   2.323   1.729
  954SOL     MW 3308   0.933   2.388   1.762
  955SOL     OW 3309   1.502   2.930   0.898
  955SOL    HW1 3310   1.505   2.864   0.829
  955SOL    HW2 3311   1.587   2.973   0.894
  955SOL     MW 3312   1.514   2.926   0.889
  956SOL     OW 3313   1.122   2.533   0.467
  956SOL    HW1 3314   1.148   2.557   0.378
  956SOL    HW2 3315   1.104   2.440   0.463
  956SOL     MW 3316   1.124   2.525   0.454
  957SOL     OW 3317   1.787   3.153   0.318
  957SOL    HW1 3318   1.743   3.194   0.393
  957SOL    HW2 3319   1.844   3.221   0.283
  957SOL     MW 3320   1.789   3.167   0.323
  958SOL     OW 3321   0.946   1.884   1.098
  958SOL    HW1 3322   0.905   1.962   1.060
  958SOL    HW2 3323   1.040   1.902   1.093
  958SOL     MW 3324   0.952   1.896   1.093
  959SOL     OW 3325   1.563   3.437   0.184
  959SOL    HW1 3326   1.611   3.506   0.230
  959SOL    HW2 3327   1.484   3.481   0.153
  959SOL     MW 3328   1.558   3.451   0.187
  960SOL     OW 3329   0.961   2.562   0.128
  960SOL    HW1 3330   0.963   2.509   0.049
  960SOL    HW2 3331   1.049   2.599   0.134
  960SOL     MW 3332   0.973   2.561   0.117
  961SOL     OW 3333   1.575   2.488   0.464
  961SOL    HW1 3334   1.614   2.488   0.551
  961SOL    HW2 3335   1.516   2.564   0.464
  961SOL     MW 3336   1.572   2.499   0.475
  962SOL     OW 3337   1.753   3.543   1.368
  962SOL    HW1 3338   1.681   3.505   1.419
  962SOL    HW2 3339   1.770   3.628   1.409
  962SOL     MW 3340   1.747   3.548   1.380
  963SOL     OW 3341   1.058   2.187   1.570
  963SOL    HW1 3342   1.024   2.226   1.489
  963SOL    HW2 3343   1.036   2.095   1.563
  963SOL     MW 3344   1.051   2.180   1.560
  964SOL     OW 3345   1.467   3.001   1.646
  964SOL    HW1 3346   1.549   3.042   1.676
  964SOL    HW2 3347   1.430   2.963   1.726
  964SOL     MW 3348   1.473   3.002   1.661
  965SOL     OW 3349   1.762   2.374   0.630
  965SOL    HW1 3350   1.851   2.343   0.647
  965SOL    HW2 3351   1.705   2.314   0.678
  965SOL     MW 3352   1.765   2.362   0.639
  966SOL     OW 3353   0.188   2.088   0.659
  966SOL    HW1 3354   0.179   2.028   0.585
  966SOL    HW2 3355   0.121   2.059   0.722
  966SOL     MW 3356   0.178   2.075   0.657
  967SOL     OW 3357   1.131   3.181   0.220
  967SOL    HW1 3358   1.081   3.183   0.302
  967SOL    HW2 3359   1.065   3.199   0.152
  967SOL     MW 3360   1.117   3.183   0.222
  968SOL     OW 3361   0.135   2.261   1.022
  968SOL    HW1 3362   0.107   2.352   1.031
  968SOL    HW2 3363   0.072   2.222   0.961
  968SOL     MW 3364   0.122   2.267   1.016
  969SOL     OW 3365   1.856   2.754   1.227
  969SOL    HW1 3366   1.872   2.792   1.140
  969SOL    HW2 3367   1.890   2.820   1.288
  969SOL     MW 3368   1.863   2.767   1.223
  970SOL     OW 3369   1.648   3.463   0.896
  970SOL    HW1 3370   1.677   3.530   0.957
  970SOL    HW2 3371   1.629   3.387   0.951
  970SOL     MW 3372   1.650   3.463   0.911
  971SOL     OW 3373   1.311   3.530   0.103
  971SOL    HW1 3374   1.237   3.493   0.153
  971SOL    HW2 3375   1.319   3.620   0.136
  971SOL     MW 3376   1.302   3.537   0.115
  972SOL     OW 3377   0.119   2.536   1.192
  972SOL    HW1 3378   0.181   2.566   1.258
  972SOL    HW2 3379   0.053   2.605   1.186
  972SOL     MW 3380   0.118   2.549   1.199
  973SOL     OW 3381   1.535   3.204   0.045
  973SOL    HW1 3382   1.482   3.253  -0.019
  973SOL    HW2 3383   1.566   3.270   0.106
  973SOL     MW 3384   1.533   3.218   0.043
  974SOL     OW 3385   0.760   2.093   0.100
  974SOL    HW1 3386   0.708   2.013   0.088
  974SOL    HW2 3387   0.847   2.070   0.068
  974SOL     MW 3388   0.763   2.079   0.094
  975SOL     OW 3389   0.266   2.964   1.151
  975SOL    HW1 3390   0.319   3.039   1.176
  975SOL    HW2 3391   0.185   3.002   1.117
  975SOL     MW 3392   0.262   2.979   1.151
  976SOL     OW 3393   0.806   2.868   1.139
  976SOL    HW1 3394   0.834   2.777   1.151
  976SOL    HW2 3395   0.735   2.862   1.075
  976SOL     MW 3396   0.799   2.856   1.134
  977SOL     OW 3397   0.121   2.733   0.557
  977SOL    HW1 3398   0.212   2.748   0.584
  977SOL    HW2 3399   0.124   2.654   0.503
  977SOL     MW 3400   0.133   2.725   0.555
  978SOL     OW 3401   0.357   2.441   1.811
  978SOL    HW1 3402   0.304   2.521   1.818
  978SOL    HW2 3403   0.427   2.453   1.876
  978SOL     MW 3404   0.359   2.454   1.819
  979SOL     OW 3405   0.427   2.515   1.557
  979SOL    HW1 3406   0.507   2.565   1.543
  979SOL    HW2 3407   0.418   2.509   1.652
  979SOL     MW 3408   0.436   2.521   1.567
  980SOL     OW 3409   0.748   3.665   0.931
  980SOL    HW1 3410   0.837   3.680   0.961
  980SOL    HW2 3411   0.743   3.712   0.847
  980SOL     MW 3412   0.758   3.673   0.924
  981SOL     OW 3413   0.129   3.345   0.596
  981SOL    HW1 3414   0.101   3.384   0.678
  981SOL    HW2 3415   0.149   3.254   0.618
  981SOL     MW 3416   0.127   3.337   0.609
  982SOL     OW 3417   0.962   3.388   0.631
  982SOL    HW1 3418   1.045   3.342   0.615
  982SOL    HW2 3419   0.952   3.387   0.727
  982SOL     MW 3420   0.972   3.381   0.641
  983SOL     OW 3421   1.794   2.533   0.945
  983SOL    HW1 3422   1.883   2.563   0.927
  983SOL    HW2 3423   1.774   2.473   0.874
  983SOL     MW 3424   1.803   2.530   0.934
  984SOL     OW 3425   1.645   2.712   1.825
  984SOL    HW1 3426   1.700   2.636   1.806
  984SOL    HW2 3427   1.647   2.720   1.920
  984SOL     MW 3428   1.653   2.703   1.833
  985SOL     OW 3429   0.695   3.445   0.036
  985SOL    HW1 3430   0.635   3.514   0.006
  985SOL    HW2 3431   0.640   3.387   0.089
  985SOL     MW 3432   0.679   3.447   0.038
  986SOL     OW 3433   1.133   2.090   0.259
  986SOL    HW1 3434   1.066   2.066   0.196
  986SOL    HW2 3435   1.198   2.139   0.208
  986SOL     MW 3436   1.133   2.092   0.244
  987SOL     OW 3437   1.200   2.612   0.967
  987SOL    HW1 3438   1.213   2.706   0.977
  987SOL    HW2 3439   1.161   2.602   0.881
  987SOL     MW 3440   1.196   2.623   0.957
  988SOL     OW 3441   0.422   2.077   1.583
  988SOL    HW1 3442   0.343   2.095   1.635
  988SOL    HW2 3443   0.417   2.139   1.510
  988SOL     MW 3444   0.412   2.087   1.580
  989SOL     OW 3445   1.070   2.594   0.723
  989SOL    HW1 3446   1.007   2.526   0.747
  989SOL    HW2 3447   1.090   2.575   0.631
  989SOL     MW 3448   1.064   2.581   0.715
  990SOL     OW 3449   0.818   2.898   0.449
  990SOL    HW1 3450   0.820   2.872   0.356
  990SOL    HW2 3451   0.876   2.835   0.492
  990SOL     MW 3452   0.826   2.887   0.443
  991SOL     OW 3453   1.371   3.458   1.221
  991SOL    HW1 3454   1.296   3.504   1.259
  991SOL    HW2 3455   1.353   3.365   1.238
  991SOL     MW 3456   1.360   3.452   1.229
  992SOL     OW 3457   1.375   3.666   0.651
  992SOL    HW1 3458   1.318   3.619   0.590
  992SOL    HW2 3459   1.461   3.627   0.638
  992SOL     MW 3460   1.378   3.657   0.641
  993SOL     OW 3461   1.328   2.142   0.782
  993SOL    HW1 3462   1.356   2.074   0.843
  993SOL    HW2 3463   1.242   2.113   0.752
  993SOL     MW 3464   1.321   2.129   0.786
  994SOL     OW 3465   0.133   3.076   0.716
  994SOL    HW1 3466   0.197   3.108   0.779
  994SOL    HW2 3467   0.182   3.012   0.664
  994SOL     MW 3468   0.148   3.072   0.717
  995SOL     OW 3469   0.633   3.152   1.698
  995SOL    HW1 3470   0.681   3.235   1.685
  995SOL    HW2 3471   0.690   3.100   1.754
  995SOL     MW 3472   0.647   3.156   1.704
  996SOL     OW 3473   0.209   3.394   1.838
  996SOL    HW1 3474   0.265   3.318   1.853
  996SOL    HW2 3475   0.158   3.372   1.760
  996SOL     MW 3476   0.209   3.381   1.829
  997SOL     OW 3477   1.308   2.246   0.117
  997SOL    HW1 3478   1.281   2.312   0.053
  997SOL    HW2 3479   1.378   2.289   0.167
  997SOL     MW 3480   1.313   2.259   0.114
  998SOL     OW 3481   0.976   1.951   0.054
  998SOL    HW1 3482   1.032   1.943  -0.024
  998SOL    HW2 3483   0.953   1.861   0.076
  998SOL     MW 3484   0.981   1.938   0.047
  999SOL     OW 3485   1.481   2.802   0.259
  999SOL    HW1 3486   1.448   2.891   0.249
  999SOL    HW2 3487   1.446   2.773   0.344
  999SOL     MW 3488   1.471   2.811   0.270
 1000SOL     OW 3489   1.094   3.231   1.447
 1000SOL    HW1 3490   1.005   3.237   1.415
 1000SOL    HW2 3491   1.138   3.310   1.415
 1000SOL     MW 3492   1.089   3.241   1.439
 1001SOL     OW 3493   0.387   1.899   1.789
 1001SOL    HW1 3494   0.315   1.864   1.737
 1001SOL    HW2 3495   0.445   1.940   1.724
 1001SOL     MW 3496   0.385   1.900   1.774
 1002SOL     OW 3497   0.411   3.389   1.088
 1002SOL    HW1 3498   0.456   3.451   1.145
 1002SOL    HW2 3499   0.318   3.408   1.101
 1002SOL     MW 3500   0.404   3.399   1.095
 1003SOL     OW 3501   1.851   2.918   1.442
 1003SOL    HW1 3502   1.766   2.931   1.401
 1003SOL    HW2 3503   1.831   2.882   1.529
 1003SOL     MW 3504   1.838   2.914   1.447
 1004SOL     OW 3505   0.833   3.457   1.196
 1004SOL    HW1 3506   0.857   3.446   1.105
 1004SOL    HW2 3507   0.756   3.514   1.194
 1004SOL     MW 3508   0.825   3.462   1.185
 1005SOL     OW 3509   1.128   2.813   0.294
 1005SOL    HW1 3510   1.038   2.834   0.269
 1005SOL    HW2 3511   1.155   2.886   0.350
 1005SOL     MW 3512   1.120   2.825   0.297
 1006SOL     OW 3513   0.628   3.162   0.986
 1006SOL    HW1 3514   0.621   3.141   1.080
 1006SOL    HW2 3515   0.546   3.130   0.949
 1006SOL     MW 3516   0.616   3.156   0.993
 1007SOL     OW 3517   0.757   1.929   0.701
 1007SOL    HW1 3518   0.686   1.990   0.683
 1007SOL    HW2 3519   0.808   1.926   0.620
 1007SOL     MW 3520   0.753   1.935   0.688
 1008SOL     OW 3521   0.515   3.169   0.450
 1008SOL    HW1 3522   0.508   3.201   0.540
 1008SOL    HW2 3523   0.425   3.153   0.422
 1008SOL     MW 3524   0.503   3.171   0.457
 1009SOL     OW 3525   1.110   3.562   1.359
 1009SOL    HW1 3526   1.030   3.547   1.309
 1009SOL    HW2 3527   1.117   3.657   1.366
 1009SOL     MW 3528   1.101   3.573   1.353
 1010SOL     OW 3529   1.632   3.622   1.124
 1010SOL    HW1 3530   1.675   3.592   1.204
 1010SOL    HW2 3531   1.551   3.570   1.121
 1010SOL     MW 3532   1.627   3.611   1.134
 1011SOL     OW 3533   0.717   2.586   1.831
 1011SOL    HW1 3534   0.787   2.528   1.803
 1011SOL    HW2 3535   0.660   2.531   1.886
 1011SOL     MW 3536   0.719   2.573   1.835
 1012SOL     OW 3537   1.504   2.798   1.464
 1012SOL    HW1 3538   1.509   2.851   1.544
 1012SOL    HW2 3539   1.466   2.715   1.492
 1012SOL     MW 3540   1.500   2.793   1.479
 1013SOL     OW 3541   1.144   1.933   1.710
 1013SOL    HW1 3542   1.139   1.840   1.691
 1013SOL    HW2 3543   1.227   1.944   1.756
 1013SOL     MW 3544   1.152   1.922   1.714
 1014SOL     OW 3545   1.614   3.204   0.986
 1014SOL    HW1 3546   1.649   3.186   0.899
 1014SOL    HW2 3547   1.519   3.205   0.973
 1014SOL     MW 3548   1.606   3.201   0.973
 1015SOL     OW 3549   1.043   2.852   1.355
 1015SOL    HW1 3550   1.086   2.887   1.433
 1015SOL    HW2 3551   1.026   2.929   1.301
 1015SOL     MW 3552   1.046   2.867   1.358
 1016SOL     OW 3553   1.574   2.339   0.228
 1016SOL    HW1 3554   1.566   2.410   0.165
 1016SOL    HW2 3555   1.592   2.383   0.311
 1016SOL     MW 3556   1.575   2.353   0.230
 1017SOL     OW 3557   0.434   1.994   0.657
 1017SOL    HW1 3558   0.484   2.037   0.588
 1017SOL    HW2 3559   0.349   2.038   0.657
 1017SOL     MW 3560   0.431   2.007   0.648
 1018SOL     OW 3561   1.243   2.601   0.203
 1018SOL    HW1 3562   1.290   2.619   0.122
 1018SOL    HW2 3563   1.209   2.685   0.231
 1018SOL     MW 3564   1.245   2.615   0.196
 1019SOL     OW 3565   1.496   2.131   0.534
 1019SOL    HW1 3566   1.418   2.081   0.559
 1019SOL    HW2 3567   1.467   2.222   0.534
 1019SOL     MW 3568   1.482   2.135   0.537
 1020SOL     OW 3569   1.082   2.093   0.693
 1020SOL    HW1 3570   1.102   2.168   0.637
 1020SOL    HW2 3571   1.062   2.132   0.778
 1020SOL     MW 3572   1.083   2.109   0.697
 1021SOL     OW 3573   0.978   3.343   0.025
 1021SOL    HW1 3574   1.005   3.421  -0.023
 1021SOL    HW2 3575   0.885   3.358   0.044
 1021SOL     MW 3576   0.969   3.356   0.021
 1022SOL     OW 3577   1.842   2.866   1.712
 1022SOL    HW1 3578   1.755   2.846   1.748
 1022SOL    HW2 3579   1.896   2.792   1.737
 1022SOL     MW 3580   1.837   2.855   1.720
 1023SOL     OW 3581   0.063   3.379   0.869
 1023SOL    HW1 3582   0.095   3.383   0.960
 1023SOL    HW2 3583  -0.032   3.387   0.877
 1023SOL     MW 3584   0.055   3.382   0.882
 1024SOL     OW 3585   1.186   3.236   0.576
 1024SOL    HW1 3586   1.209   3.187   0.654
 1024SOL    HW2 3587   1.267   3.278   0.548
 1024SOL     MW 3588   1.199   3.236   0.583
 1025SOL     OW 3589   0.541   1.989   0.932
 1025SOL    HW1 3590   0.551   1.898   0.958
 1025SOL    HW2 3591   0.497   1.985   0.847
 1025SOL     MW 3592   0.537   1.977   0.924
 1026SOL     OW 3593   1.692   2.311   1.103
 1026SOL    HW1 3594   1.625   2.344   1.163
 1026SOL    HW2 3595   1.735   2.389   1.069
 1026SOL     MW 3596   1.690   2.326   1.107
 1027SOL     OW 3597   1.870   3.031   1.073
 1027SOL    HW1 3598   1.863   2.971   0.998
 1027SOL    HW2 3599   1.796   3.091   1.062
 1027SOL     MW 3600   1.860   3.031   1.062
 1028SOL     OW 3601   1.252   2.893   0.991
 1028SOL    HW1 3602   1.266   2.865   1.082
 1028SOL    HW2 3603   1.338   2.924   0.963
 1028SOL     MW 3604   1.265   2.894   1.000
 1029SOL     OW 3605   1.335   2.388   1.270
 1029SOL    HW1 3606   1.356   2.389   1.177
 1029SOL    HW2 3607   1.380   2.310   1.303
 1029SOL     MW 3608   1.342   2.378   1.262
 1030SOL     OW 3609   1.375   2.817   1.863
 1030SOL    HW1 3610   1.441   2.765   1.817
 1030SOL    HW2 3611   1.395   2.804   1.956
 1030SOL     MW 3612   1.386   2.808   1.870
 1031SOL     OW 3613   1.326   1.903   0.212
 1031SOL    HW1 3614   1.400   1.947   0.255
 1031SOL    HW2 3615   1.250   1.957   0.234
 1031SOL     MW 3616   1.326   1.915   0.220
 1032SOL     OW 3617   1.386   2.678   0.490
 1032SOL    HW1 3618   1.301   2.648   0.460
 1032SOL    HW2 3619   1.378   2.685   0.585
 1032SOL     MW 3620   1.374   2.676   0.499
 1033SOL     OW 3621   0.462   3.141   1.221
 1033SOL    HW1 3622   0.474   3.168   1.312
 1033SOL    HW2 3623   0.443   3.222   1.174
 1033SOL     MW 3624   0.461   3.156   1.226
 1034SOL     OW 3625   0.746   2.121   1.044
 1034SOL    HW1 3626   0.719   2.123   1.135
 1034SOL    HW2 3627   0.676   2.073   0.999
 1034SOL     MW 3628   0.734   2.117   1.051
 1035SOL     OW 3629   1.502   3.198   1.438
 1035SOL    HW1 3630   1.487   3.127   1.501
 1035SOL    HW2 3631   1.548   3.156   1.366
 1035SOL     MW 3632   1.508   3.182   1.438
 1036SOL     OW 3633   0.756   2.972   1.367
 1036SOL    HW1 3634   0.815   2.918   1.420
 1036SOL    HW2 3635   0.771   2.944   1.277
 1036SOL     MW 3636   0.766   2.961   1.363
 1037SOL     OW 3637   1.567   3.461   1.539
 1037SOL    HW1 3638   1.609   3.446   1.624
 1037SOL    HW2 3639   1.558   3.374   1.501
 1037SOL     MW 3640   1.571   3.449   1.546
 1038SOL     OW 3641   0.234   2.853   0.314
 1038SOL    HW1 3642   0.171   2.869   0.243
 1038SOL    HW2 3643   0.181   2.816   0.385
 1038SOL     MW 3644   0.219   2.850   0.314
 1039SOL     OW 3645   1.129   3.438   0.325
 1039SOL    HW1 3646   1.137   3.356   0.276
 1039SOL    HW2 3647   1.048   3.477   0.292
 1039SOL     MW 3648   1.119   3.433   0.315
 1040SOL     OW 3649   0.388   3.596   0.894
 1040SOL    HW1 3650   0.392   3.507   0.929
 1040SOL    HW2 3651   0.414   3.587   0.803
 1040SOL     MW 3652   0.391   3.584   0.886
 1041SOL     OW 3653   1.005   3.074   1.137
 1041SOL    HW1 3654   0.937   3.008   1.153
 1041SOL    HW2 3655   1.023   3.068   1.044
 1041SOL     MW 3656   0.998   3.065   1.128
 1042SOL     OW 3657   0.094   3.349   1.388
 1042SOL    HW1 3658   0.084   3.307   1.474
 1042SOL    HW2 3659   0.015   3.402   1.378
 1042SOL     MW 3660   0.083   3.350   1.399
 1043SOL     OW 3661   0.998   2.213   0.958
 1043SOL    HW1 3662   0.928   2.165   1.003
 1043SOL    HW2 3663   1.030   2.276   1.022
 1043SOL     MW 3664   0.993   2.215   0.972
 1044SOL     OW 3665   1.454   1.927   1.303
 1044SOL    HW1 3666   1.525   1.873   1.267
 1044SOL    HW2 3667   1.453   1.906   1.396
 1044SOL     MW 3668   1.463   1.918   1.311
 1045SOL     OW 3669   1.654   3.457   1.787
 1045SOL    HW1 3670   1.627   3.454   1.878
 1045SOL    HW2 3671   1.750   3.461   1.790
 1045SOL     MW 3672   1.664   3.457   1.799
 1046SOL     OW 3673   0.781   3.412   0.847
 1046SOL    HW1 3674   0.709   3.349   0.860
 1046SOL    HW2 3675   0.742   3.497   0.865
 1046SOL     MW 3676   0.765   3.415   0.850
 1047SOL     OW 3677   0.186   1.950   0.427
 1047SOL    HW1 3678   0.257   1.971   0.366
 1047SOL    HW2 3679   0.140   1.878   0.385
 1047SOL     MW 3680   0.190   1.944   0.413
 1048SOL     OW 3681   0.017   2.417   1.570
 1048SOL    HW1 3682   0.081   2.483   1.545
 1048SOL    HW2 3683  -0.064   2.444   1.527
 1048SOL     MW 3684   0.015   2.429   1.562
 1049SOL     OW 3685   1.755   3.324   0.527
 1049SOL    HW1 3686   1.725   3.257   0.588
 1049SOL    HW2 3687   1.849   3.330   0.541
 1049SOL     MW 3688   1.763   3.316   0.537
 1050SOL     OW 3689   1.311   3.001   0.457
 1050SOL    HW1 3690   1.283   3.087   0.490
 1050SOL    HW2 3691   1.339   3.017   0.367
 1050SOL     MW 3692   1.311   3.015   0.449
 1051SOL     OW 3693   0.973   1.921   0.510
 1051SOL    HW1 3694   1.010   1.980   0.575
 1051SOL    HW2 3695   0.950   1.977   0.436
 1051SOL     MW 3696   0.974   1.936   0.509
 1052SOL     OW 3697   1.826   2.803   0.932
 1052SOL    HW1 3698   1.817   2.835   0.843
 1052SOL    HW2 3699   1.779   2.719   0.932
 1052SOL     MW 3700   1.819   2.796   0.922
 1053SOL     OW 3701   0.202   2.643   1.511
 1053SOL    HW1 3702   0.223   2.712   1.449
 1053SOL    HW2 3703   0.282   2.590   1.516
 1053SOL     MW 3704   0.215   2.644   1.505
 1054SOL     OW 3705   1.738   2.734   0.633
 1054SOL    HW1 3706   1.832   2.723   0.621
 1054SOL    HW2 3707   1.714   2.806   0.574
 1054SOL     MW 3708   1.748   2.742   0.624
 1055SOL     OW 3709   0.187   2.658   1.778
 1055SOL    HW1 3710   0.113   2.602   1.804
 1055SOL    HW2 3711   0.182   2.661   1.683
 1055SOL     MW 3712   0.176   2.651   1.768
 1056SOL     OW 3713   0.353   1.945   1.228
 1056SOL    HW1 3714   0.396   2.029   1.248
 1056SOL    HW2 3715   0.426   1.883   1.221
 1056SOL     MW 3716   0.368   1.948   1.229
 1057SOL     OW 3717   0.394   2.612   0.406
 1057SOL    HW1 3718   0.394   2.707   0.391
 1057SOL    HW2 3719   0.471   2.596   0.460
 1057SOL     MW 3720   0.404   2.623   0.411
 1058SOL     OW 3721   0.153   2.343   0.695
 1058SOL    HW1 3722   0.215   2.350   0.768
 1058SOL    HW2 3723   0.153   2.250   0.672
 1058SOL     MW 3724   0.161   2.332   0.702
 1059SOL     OW 3725   1.700   3.683   0.227
 1059SOL    HW1 3726   1.767   3.716   0.167
 1059SOL    HW2 3727   1.657   3.762   0.261
 1059SOL     MW 3728   1.702   3.698   0.223
 1060SOL     OW 3729   0.835   2.604   1.179
 1060SOL    HW1 3730   0.793   2.522   1.155
 1060SOL    HW2 3731   0.836   2.603   1.275
 1060SOL     MW 3732   0.828   2.593   1.188
 1061SOL     OW 3733   0.639   2.074   1.284
 1061SOL    HW1 3734   0.570   2.137   1.305
 1061SOL    HW2 3735   0.666   2.038   1.369
 1061SOL     MW 3736   0.633   2.077   1.297
 1062SOL     OW 3737   0.022   2.915   0.153
 1062SOL    HW1 3738  -0.009   2.980   0.216
 1062SOL    HW2 3739  -0.029   2.837   0.172
 1062SOL     MW 3740   0.012   2.912   0.163
 1063SOL     OW 3741   0.606   3.715   0.095
 1063SOL    HW1 3742   0.511   3.715   0.087
 1063SOL    HW2 3743   0.622   3.661   0.173
 1063SOL     MW 3744   0.596   3.709   0.104
 1064SOL     OW 3745   0.916   2.592   1.442
 1064SOL    HW1 3746   0.985   2.659   1.439
 1064SOL    HW2 3747   0.849   2.630   1.498
 1064SOL     MW 3748   0.917   2.605   1.449
 1065SOL     OW 3749   0.334   2.892   1.690
 1065SOL    HW1 3750   0.288   2.808   1.692
 1065SOL    HW2 3751   0.391   2.886   1.614
 1065SOL     MW 3752   0.336   2.880   1.682
 1066SOL     OW 3753   0.846   2.432   0.821
 1066SOL    HW1 3754   0.786   2.450   0.893
 1066SOL    HW2 3755   0.880   2.344   0.840
 1066SOL     MW 3756   0.842   2.422   0.834
 1067SOL     OW 3757   1.071   3.015   0.840
 1067SOL    HW1 3758   1.163   2.996   0.858
 1067SOL    HW2 3759   1.044   2.945   0.780
 1067SOL     MW 3760   1.079   3.003   0.834
 1068SOL     OW 3761   0.864   2.835   0.195
 1068SOL    HW1 3762   0.850   2.747   0.160
 1068SOL    HW2 3763   0.815   2.892   0.136
 1068SOL     MW 3764   0.856   2.830   0.183
 1069SOL     OW 3765   1.345   3.253   0.936
 1069SOL    HW1 3766   1.318   3.337   0.901
 1069SOL    HW2 3767   1.305   3.248   1.023
 1069SOL     MW 3768   1.338   3.262   0.942
 1070SOL     OW 3769   1.583   2.041   0.297
 1070SOL    HW1 3770   1.576   2.045   0.392
 1070SOL    HW2 3771   1.595   2.132   0.270
 1070SOL     MW 3772   1.584   2.054   0.305
 1071SOL     OW 3773   0.872   2.604   0.411
 1071SOL    HW1 3774   0.852   2.590   0.318
 1071SOL    HW2 3775   0.965   2.583   0.418
 1071SOL     MW 3776   0.882   2.599   0.400
 1072SOL     OW 3777   1.311   2.847   1.260
 1072SOL    HW1 3778   1.374   2.844   1.333
 1072SOL    HW2 3779   1.227   2.865   1.302
 1072SOL     MW 3780   1.307   2.849   1.275
 1073SOL     OW 3781   0.855   3.562   0.449
 1073SOL    HW1 3782   0.913   3.633   0.476
 1073SOL    HW2 3783   0.878   3.490   0.507
 1073SOL     MW 3784   0.866   3.562   0.460
 1074SOL     OW 3785   1.650   2.024   1.039
 1074SOL    HW1 3786   1.695   1.942   1.058
 1074SOL    HW2 3787   1.670   2.080   1.115
 1074SOL     MW 3788   1.660   2.020   1.051
 1075SOL     OW 3789   0.427   3.205   1.501
 1075SOL    HW1 3790   0.348   3.155   1.524
 1075SOL    HW2 3791   0.497   3.164   1.551
 1075SOL     MW 3792   0.425   3.193   1.511
 1076SOL     OW 3793   0.311   1.994   0.184
 1076SOL    HW1 3794   0.240   2.049   0.152
 1076SOL    HW2 3795   0.353   1.960   0.105
 1076SOL     MW 3796   0.307   1.996   0.170
 1077SOL     OW 3797   1.435   2.491   1.020
 1077SOL    HW1 3798   1.358   2.537   0.986
 1077SOL    HW2 3799   1.492   2.560   1.054
 1077SOL     MW 3800   1.432   2.506   1.020
 1078SOL     OW 3801   0.067   2.093   0.033
 1078SOL    HW1 3802   0.034   2.172   0.077
 1078SOL    HW2 3803   0.122   2.126  -0.038
 1078SOL     MW 3804   0.070   2.107   0.030
 1079SOL     OW 3805   1.373   3.439   0.439
 1079SOL    HW1 3806   1.436   3.429   0.368
 1079SOL    HW2 3807   1.290   3.459   0.394
 1079SOL     MW 3808   1.370   3.440   0.424
 1080SOL     OW 3809   1.646   3.593   2.496
 1080SOL    HW1 3810   1.658   3.539   2.574
 1080SOL    HW2 3811   1.683   3.541   2.425
 1080SOL     MW 3812   1.652   3.578   2.497
 1081SOL     OW 3813   0.814   2.346   2.367
 1081SOL    HW1 3814   0.789   2.434   2.395
 1081SOL    HW2 3815   0.811   2.349   2.271
 1081SOL     MW 3816   0.810   2.358   2.359
 1082SOL     OW 3817   0.334   2.787   3.196
 1082SOL    HW1 3818   0.397   2.734   3.147
 1082SOL    HW2 3819   0.315   2.861   3.139
 1082SOL     MW 3820   0.340   2.789   3.183
 1083SOL     OW 3821   0.655   2.129   2.382
 1083SOL    HW1 3822   0.713   2.205   2.384
 1083SOL    HW2 3823   0.590   2.150   2.315
 1083SOL     MW 3824   0.654   2.141   2.373
 1084SOL     OW 3825   0.767   3.397   3.460
 1084SOL    HW1 3826   0.851   3.423   3.499
 1084SOL    HW2 3827   0.791   3.341   3.386
 1084SOL     MW 3828   0.781   3.393   3.455
 1085SOL     OW 3829   0.519   2.560   2.548
 1085SOL    HW1 3830   0.504   2.480   2.599
 1085SOL    HW2 3831   0.601   2.595   2.582
 1085SOL     MW 3832   0.527   2.552   2.560
 1086SOL     OW 3833   0.856   3.246   3.233
 1086SOL    HW1 3834   0.820   3.312   3.173
 1086SOL    HW2 3835   0.784   3.184   3.246
 1086SOL     MW 3836   0.842   3.246   3.227
 1087SOL     OW 3837   0.661   2.386   2.925
 1087SOL    HW1 3838   0.567   2.382   2.943
 1087SOL    HW2 3839   0.691   2.295   2.934
 1087SOL     MW 3840   0.652   2.374   2.928
 1088SOL     OW 3841   0.104   3.646   2.704
 1088SOL    HW1 3842   0.193   3.638   2.739
 1088SOL    HW2 3843   0.068   3.558   2.709
 1088SOL     MW 3844   0.111   3.633   2.709
 1089SOL     OW 3845   1.369   3.038   2.073
 1089SOL    HW1 3846   1.287   3.074   2.039
 1089SOL    HW2 3847   1.437   3.081   2.022
 1089SOL     MW 3848   1.367   3.048   2.061
 1090SOL     OW 3849   0.368   3.173   2.739
 1090SOL    HW1 3850   0.344   3.226   2.815
 1090SOL    HW2 3851   0.424   3.231   2.687
 1090SOL     MW 3852   0.372   3.188   2.742
 1091SOL     OW 3853   0.930   2.817   2.549
 1091SOL    HW1 3854   0.844   2.804   2.589
 1091SOL    HW2 3855   0.983   2.744   2.581
 1091SOL     MW 3856   0.926   2.806   2.558
 1092SOL     OW 3857   0.921   3.179   2.266
 1092SOL    HW1 3858   0.898   3.241   2.334
 1092SOL    HW2 3859   0.878   3.097   2.292
 1092SOL     MW 3860   0.913   3.175   2.277
 1093SOL     OW 3861   1.794   2.180   2.722
 1093SOL    HW1 3862   1.731   2.160   2.791
 1093SOL    HW2 3863   1.784   2.109   2.659
 1093SOL     MW 3864   1.784   2.167   2.723
 1094SOL     OW 3865   0.418   2.152   2.234
 1094SOL    HW1 3866   0.392   2.114   2.150
 1094SOL    HW2 3867   0.355   2.222   2.250
 1094SOL     MW 3868   0.407   2.155   2.225
 1095SOL     OW 3869   1.850   2.349   2.024
 1095SOL    HW1 3870   1.759   2.351   2.052
 1095SOL    HW2 3871   1.895   2.411   2.082
 1095SOL     MW 3872   1.843   2.357   2.034
 1096SOL     OW 3873   1.595   2.952   2.374
 1096SOL    HW1 3874   1.505   2.952   2.409
 1096SOL    HW2 3875   1.588   2.998   2.291
 1096SOL     MW 3876   1.582   2.958   2.368
 1097SOL     OW 3877   1.395   2.587   3.446
 1097SOL    HW1 3878   1.464   2.525   3.423
 1097SOL    HW2 3879   1.320   2.561   3.393
 1097SOL     MW 3880   1.395   2.574   3.437
 1098SOL     OW 3881   1.131   2.974   3.438
 1098SOL    HW1 3882   1.116   3.067   3.423
 1098SOL    HW2 3883   1.226   2.964   3.438
 1098SOL     MW 3884   1.140   2.984   3.435
 1099SOL     OW 3885   1.502   2.930   2.766
 1099SOL    HW1 3886   1.505   2.864   2.697
 1099SOL    HW2 3887   1.587   2.973   2.762
 1099SOL     MW 3888   1.514   2.926   2.757
 1100SOL     OW 3889   1.122   2.533   2.335
 1100SOL    HW1 3890   1.148   2.557   2.246
 1100SOL    HW2 3891   1.104   2.440   2.331
 1100SOL     MW 3892   1.124   2.525   2.322
 1101SOL     OW 3893   1.787   3.153   2.186
 1101SOL    HW1 3894   1.743   3.194   2.261
 1101SOL    HW2 3895   1.844   3.221   2.151
 1101SOL     MW 3896   1.789   3.167   2.191
 1102SOL     OW 3897   0.707   2.202   3.589
 1102SOL    HW1 3898   0.717   2.128   3.529
 1102SOL    HW2 3899   0.743   2.171   3.672
 1102SOL     MW 3900   0.713   2.188   3.591
 1103SOL     OW 3901   0.443   3.569   2.504
 1103SOL    HW1 3902   0.475   3.657   2.482
 1103SOL    HW2 3903   0.396   3.541   2.426
 1103SOL     MW 3904   0.442   3.577   2.491
 1104SOL     OW 3905   0.159   3.629   2.081
 1104SOL    HW1 3906   0.188   3.719   2.073
 1104SOL    HW2 3907   0.109   3.612   2.002
 1104SOL     MW 3908   0.157   3.637   2.070
 1105SOL     OW 3909   1.575   2.488   2.332
 1105SOL    HW1 3910   1.614   2.488   2.419
 1105SOL    HW2 3911   1.516   2.564   2.332
 1105SOL     MW 3912   1.572   2.499   2.343
 1106SOL     OW 3913   1.061   2.481   3.055
 1106SOL    HW1 3914   1.136   2.510   3.002
 1106SOL    HW2 3915   0.993   2.546   3.039
 1106SOL     MW 3916   1.062   2.493   3.045
 1107SOL     OW 3917   1.058   2.187   3.438
 1107SOL    HW1 3918   1.024   2.226   3.357
 1107SOL    HW2 3919   1.036   2.095   3.431
 1107SOL     MW 3920   1.051   2.180   3.428
 1108SOL     OW 3921   1.467   3.001   3.514
 1108SOL    HW1 3922   1.549   3.042   3.544
 1108SOL    HW2 3923   1.430   2.963   3.594
 1108SOL     MW 3924   1.473   3.002   3.529
 1109SOL     OW 3925   1.762   2.374   2.498
 1109SOL    HW1 3926   1.851   2.343   2.515
 1109SOL    HW2 3927   1.705   2.314   2.546
 1109SOL     MW 3928   1.765   2.362   2.507
 1110SOL     OW 3929   0.188   2.088   2.527
 1110SOL    HW1 3930   0.179   2.028   2.453
 1110SOL    HW2 3931   0.121   2.059   2.590
 1110SOL     MW 3932   0.178   2.075   2.525
 1111SOL     OW 3933   1.131   3.181   2.088
 1111SOL    HW1 3934   1.081   3.183   2.170
 1111SOL    HW2 3935   1.065   3.199   2.020
 1111SOL     MW 3936   1.117   3.183   2.090
 1112SOL     OW 3937   0.135   2.261   2.890
 1112SOL    HW1 3938   0.107   2.352   2.899
 1112SOL    HW2 3939   0.072   2.222   2.829
 1112SOL     MW 3940   0.122   2.267   2.884
 1113SOL     OW 3941   0.730   3.014   1.903
 1113SOL    HW1 3942   0.652   2.960   1.890
 1113SOL    HW2 3943   0.701   3.087   1.956
 1113SOL     MW 3944   0.716   3.016   1.908
 1114SOL     OW 3945   1.856   2.754   3.095
 1114SOL    HW1 3946   1.872   2.792   3.008
 1114SOL    HW2 3947   1.890   2.820   3.156
 1114SOL     MW 3948   1.863   2.767   3.091
 1115SOL     OW 3949   1.648   3.463   2.764
 1115SOL    HW1 3950   1.677   3.530   2.825
 1115SOL    HW2 3951   1.629   3.387   2.819
 1115SOL     MW 3952   1.650   3.463   2.779
 1116SOL     OW 3953   0.119   2.536   3.060
 1116SOL    HW1 3954   0.181   2.566   3.126
 1116SOL    HW2 3955   0.053   2.605   3.054
 1116SOL     MW 3956   0.118   2.549   3.067
 1117SOL     OW 3957   0.760   2.093   1.968
 1117SOL    HW1 3958   0.708   2.013   1.956
 1117SOL    HW2 3959   0.847   2.070   1.936
 1117SOL     MW 3960   0.763   2.079   1.962
 1118SOL     OW 3961   0.214   3.645   3.512
 1118SOL    HW1 3962   0.188   3.713   3.450
 1118SOL    HW2 3963   0.262   3.582   3.460
 1118SOL     MW 3964   0.216   3.645   3.498
 1119SOL     OW 3965   0.266   2.964   3.019
 1119SOL    HW1 3966   0.319   3.039   3.044
 1119SOL    HW2 3967   0.185   3.002   2.985
 1119SOL     MW 3968   0.262   2.979   3.019
 1120SOL     OW 3969   0.806   2.868   3.007
 1120SOL    HW1 3970   0.834   2.777   3.019
 1120SOL    HW2 3971   0.735   2.862   2.943
 1120SOL     MW 3972   0.799   2.856   3.002
 1121SOL     OW 3973   0.121   2.733   2.425
 1121SOL    HW1 3974   0.212   2.748   2.452
 1121SOL    HW2 3975   0.124   2.654   2.371
 1121SOL     MW 3976   0.133   2.725   2.423
 1122SOL     OW 3977   0.357   2.441   3.679
 1122SOL    HW1 3978   0.304   2.521   3.686
 1122SOL    HW2 3979   0.427   2.453   3.744
 1122SOL     MW 3980   0.359   2.454   3.687
 1123SOL     OW 3981   0.743   1.991   3.386
 1123SOL    HW1 3982   0.720   1.899   3.388
 1123SOL    HW2 3983   0.829   1.993   3.343
 1123SOL     MW 3984   0.750   1.981   3.382
 1124SOL     OW 3985   0.427   2.515   3.425
 1124SOL    HW1 3986   0.507   2.565   3.411
 1124SOL    HW2 3987   0.418   2.509   3.520
 1124SOL     MW 3988   0.436   2.521   3.435
 1125SOL     OW 3989   0.748   3.665   2.799
 1125SOL    HW1 3990   0.837   3.680   2.829
 1125SOL    HW2 3991   0.743   3.712   2.715
 1125SOL     MW 3992   0.758   3.673   2.792
 1126SOL     OW 3993   0.129   3.345   2.464
 1126SOL    HW1 3994   0.101   3.384   2.546
 1126SOL    HW2 3995   0.149   3.254   2.486
 1126SOL     MW 3996   0.127   3.337   2.477
 1127SOL     OW 3997   0.962   3.388   2.499
 1127SOL    HW1 3998   1.045   3.342   2.483
 1127SOL    HW2 3999   0.952   3.387   2.595
 1127SOL     MW 4000   0.972   3.381   2.509
 1128SOL     OW 4001   1.645   2.712   3.693
 1128SOL    HW1 4002   1.700   2.636   3.674
 1128SOL    HW2 4003   1.647   2.720   3.788
 1128SOL     MW 4004   1.653   2.703   3.701
 1129SOL     OW 4005   0.695   3.445   1.904
 1129SOL    HW1 4006   0.635   3.514   1.874
 1129SOL    HW2 4007   0.640   3.387   1.957
 1129SOL     MW 4008   0.679   3.447   1.906
 1130SOL     OW 4009   1.133   2.090   2.127
 1130SOL    HW1 4010   1.066   2.066   2.064
 1130SOL    HW2 4011   1.198   2.139   2.076
 1130SOL     MW 4012   1.133   2.092   2.112
 1131SOL     OW 4013   0.940   2.274   3.212
 1131SOL    HW1 4014   0.859   2.315   3.240
 1131SOL    HW2 4015   0.987   2.342   3.164
 1131SOL     MW 4016   0.935   2.289   3.210
 1132SOL     OW 4017   1.070   2.594   2.591
 1132SOL    HW1 4018   1.007   2.526   2.615
 1132SOL    HW2 4019   1.090   2.575   2.499
 1132SOL     MW 4020   1.064   2.581   2.583
 1133SOL     OW 4021   0.326   3.489   2.293
 1133SOL    HW1 4022   0.287   3.536   2.219
 1133SOL    HW2 4023   0.260   3.424   2.318
 1133SOL     MW 4024   0.313   3.487   2.287
 1134SOL     OW 4025   1.371   3.458   3.089
 1134SOL    HW1 4026   1.296   3.504   3.127
 1134SOL    HW2 4027   1.353   3.365   3.106
 1134SOL     MW 4028   1.360   3.452   3.097
 1135SOL     OW 4029   1.375   3.666   2.519
 1135SOL    HW1 4030   1.318   3.619   2.458
 1135SOL    HW2 4031   1.461   3.627   2.506
 1135SOL     MW 4032   1.378   3.657   2.509
 1136SOL     OW 4033   0.633   3.152   3.566
 1136SOL    HW1 4034   0.681   3.235   3.553
 1136SOL    HW2 4035   0.690   3.100   3.622
 1136SOL     MW 4036   0.647   3.156   3.572
 1137SOL     OW 4037   1.308   2.246   1.985
 1137SOL    HW1 4038   1.281   2.312   1.921
 1137SOL    HW2 4039   1.378   2.289   2.035
 1137SOL     MW 4040   1.313   2.259   1.982
 1138SOL     OW 4041   1.481   2.802   2.127
 1138SOL    HW1 4042   1.448   2.891   2.117
 1138SOL    HW2 4043   1.446   2.773   2.212
 1138SOL     MW 4044   1.471   2.811   2.138
 1139SOL     OW 4045   1.094   3.231   3.315
 1139SOL    HW1 4046   1.005   3.237   3.283
 1139SOL    HW2 4047   1.138   3.310   3.283
 1139SOL     MW 4048   1.089   3.241   3.307
 1140SOL     OW 4049   0.387   1.899   3.657
 1140SOL    HW1 4050   0.315   1.864   3.605
 1140SOL    HW2 4051   0.445   1.940   3.592
 1140SOL     MW 4052   0.385   1.900   3.642
 1141SOL     OW 4053   1.851   2.918   3.310
 1141SOL    HW1 4054   1.766   2.931   3.269
 1141SOL    HW2 4055   1.831   2.882   3.397
 1141SOL     MW 4056   1.838   2.914   3.315
 1142SOL     OW 4057   0.833   3.457   3.064
 1142SOL    HW1 4058   0.857   3.446   2.973
 1142SOL    HW2 4059   0.756   3.514   3.062
 1142SOL     MW 4060   0.825   3.462   3.053
 1143SOL     OW 4061   0.475   2.840   1.919
 1143SOL    HW1 4062   0.398   2.853   1.975
 1143SOL    HW2 4063   0.439   2.804   1.838
 1143SOL     MW 4064   0.461   2.836   1.916
 1144SOL     OW 4065   1.128   2.813   2.162
 1144SOL    HW1 4066   1.038   2.834   2.137
 1144SOL    HW2 4067   1.155   2.886   2.218
 1144SOL     MW 4068   1.120   2.825   2.165
 1145SOL     OW 4069   0.628   3.162   2.854
 1145SOL    HW1 4070   0.621   3.141   2.948
 1145SOL    HW2 4071   0.546   3.130   2.817
 1145SOL     MW 4072   0.616   3.156   2.861
 1146SOL     OW 4073   1.828   2.096   3.129
 1146SOL    HW1 4074   1.809   2.163   3.064
 1146SOL    HW2 4075   1.885   2.034   3.084
 1146SOL     MW 4076   1.832   2.097   3.115
 1147SOL     OW 4077   0.074   3.254   3.517
 1147SOL    HW1 4078   0.118   3.187   3.463
 1147SOL    HW2 4079  -0.011   3.216   3.537
 1147SOL     MW 4080   0.069   3.240   3.513
 1148SOL     OW 4081   0.757   1.929   2.569
 1148SOL    HW1 4082   0.686   1.990   2.551
 1148SOL    HW2 4083   0.808   1.926   2.488
 1148SOL     MW 4084   0.753   1.935   2.556
 1149SOL     OW 4085   1.224   3.527   2.717
 1149SOL    HW1 4086   1.271   3.600   2.676
 1149SOL    HW2 4087   1.145   3.566   2.753
 1149SOL     MW 4088   1.219   3.542   2.716
 1150SOL     OW 4089   0.717   2.586   3.699
 1150SOL    HW1 4090   0.787   2.528   3.671
 1150SOL    HW2 4091   0.660   2.531   3.754
 1150SOL     MW 4092   0.719   2.573   3.703
 1151SOL     OW 4093   1.504   2.798   3.332
 1151SOL    HW1 4094   1.509   2.851   3.412
 1151SOL    HW2 4095   1.466   2.715   3.360
 1151SOL     MW 4096   1.500   2.793   3.347
 1152SOL     OW 4097   1.144   1.933   3.578
 1152SOL    HW1 4098   1.139   1.840   3.559
 1152SOL    HW2 4099   1.227   1.944   3.624
 1152SOL     MW 4100   1.152   1.922   3.582
 1153SOL     OW 4101   1.043   2.852   3.223
 1153SOL    HW1 4102   1.086   2.887   3.301
 1153SOL    HW2 4103   1.026   2.929   3.169
 1153SOL     MW 4104   1.046   2.867   3.226
 1154SOL     OW 4105   1.574   2.339   2.096
 1154SOL    HW1 4106   1.566   2.410   2.033
 1154SOL    HW2 4107   1.592   2.383   2.179
 1154SOL     MW 4108   1.575   2.353   2.098
 1155SOL     OW 4109   0.434   1.994   2.525
 1155SOL    HW1 4110   0.484   2.037   2.456
 1155SOL    HW2 4111   0.349   2.038   2.525
 1155SOL     MW 4112   0.431   2.007   2.516
 1156SOL     OW 4113   0.193   3.056   3.385
 1156SOL    HW1 4114   0.221   3.009   3.463
 1156SOL    HW2 4115   0.114   3.011   3.356
 1156SOL     MW 4116   0.186   3.045   3.391
 1157SOL     OW 4117   0.701   2.383   3.352
 1157SOL    HW1 4118   0.673   2.471   3.376
 1157SOL    HW2 4119   0.670   2.327   3.423
 1157SOL     MW 4120   0.693   2.386   3.364
 1158SOL     OW 4121   0.356   2.779   2.565
 1158SOL    HW1 4122   0.414   2.835   2.513
 1158SOL    HW2 4123   0.400   2.694   2.567
 1158SOL     MW 4124   0.369   2.776   2.558
 1159SOL     OW 4125   1.496   2.131   2.402
 1159SOL    HW1 4126   1.418   2.081   2.427
 1159SOL    HW2 4127   1.467   2.222   2.402
 1159SOL     MW 4128   1.482   2.135   2.405
 1160SOL     OW 4129   1.082   2.093   2.561
 1160SOL    HW1 4130   1.102   2.168   2.505
 1160SOL    HW2 4131   1.062   2.132   2.646
 1160SOL     MW 4132   1.083   2.109   2.565
 1161SOL     OW 4133   1.842   2.866   3.580
 1161SOL    HW1 4134   1.755   2.846   3.616
 1161SOL    HW2 4135   1.896   2.792   3.605
 1161SOL     MW 4136   1.837   2.855   3.588
 1162SOL     OW 4137   0.063   3.379   2.737
 1162SOL    HW1 4138   0.095   3.383   2.828
 1162SOL    HW2 4139  -0.032   3.387   2.745
 1162SOL     MW 4140   0.055   3.382   2.750
 1163SOL     OW 4141   1.186   3.236   2.444
 1163SOL    HW1 4142   1.209   3.187   2.522
 1163SOL    HW2 4143   1.267   3.278   2.416
 1163SOL     MW 4144   1.199   3.236   2.451
 1164SOL     OW 4145   0.444   2.244   3.173
 1164SOL    HW1 4146   0.477   2.325   3.213
 1164SOL    HW2 4147   0.417   2.270   3.085
 1164SOL     MW 4148   0.443   2.258   3.167
 1165SOL     OW 4149   0.398   2.211   2.909
 1165SOL    HW1 4150   0.428   2.125   2.880
 1165SOL    HW2 4151   0.303   2.204   2.912
 1165SOL     MW 4152   0.390   2.200   2.907
 1166SOL     OW 4153   1.227   2.420   3.600
 1166SOL    HW1 4154   1.279   2.355   3.553
 1166SOL    HW2 4155   1.185   2.471   3.530
 1166SOL     MW 4156   1.228   2.417   3.583
 1167SOL     OW 4157   1.326   2.215   3.461
 1167SOL    HW1 4158   1.233   2.199   3.448
 1167SOL    HW2 4159   1.352   2.153   3.529
 1167SOL     MW 4160   1.316   2.205   3.468
 1168SOL     OW 4161   0.541   1.989   2.800
 1168SOL    HW1 4162   0.551   1.898   2.826
 1168SOL    HW2 4163   0.497   1.985   2.715
 1168SOL     MW 4164   0.537   1.977   2.792
 1169SOL     OW 4165   0.635   3.604   3.346
 1169SOL    HW1 4166   0.552   3.589   3.391
 1169SOL    HW2 4167   0.694   3.537   3.381
 1169SOL     MW 4168   0.633   3.594   3.356
 1170SOL     OW 4169   1.870   3.031   2.941
 1170SOL    HW1 4170   1.863   2.971   2.866
 1170SOL    HW2 4171   1.796   3.091   2.930
 1170SOL     MW 4172   1.860   3.031   2.930
 1171SOL     OW 4173   1.252   2.893   2.859
 1171SOL    HW1 4174   1.266   2.865   2.950
 1171SOL    HW2 4175   1.338   2.924   2.831
 1171SOL     MW 4176   1.265   2.894   2.868
 1172SOL     OW 4177   1.335   2.388   3.138
 1172SOL    HW1 4178   1.356   2.389   3.045
 1172SOL    HW2 4179   1.380   2.310   3.171
 1172SOL     MW 4180   1.342   2.378   3.130
 1173SOL     OW 4181   1.326   1.903   2.080
 1173SOL    HW1 4182   1.400   1.947   2.123
 1173SOL    HW2 4183   1.250   1.957   2.102
 1173SOL     MW 4184   1.326   1.915   2.088
 1174SOL     OW 4185   1.386   2.678   2.358
 1174SOL    HW1 4186   1.301   2.648   2.328
 1174SOL    HW2 4187   1.378   2.685   2.453
 1174SOL     MW 4188   1.374   2.676   2.367
 1175SOL     OW 4189   0.462   3.141   3.089
 1175SOL    HW1 4190   0.474   3.168   3.180
 1175SOL    HW2 4191   0.443   3.222   3.042
 1175SOL     MW 4192   0.461   3.156   3.094
 1176SOL     OW 4193   0.746   2.121   2.912
 1176SOL    HW1 4194   0.719   2.123   3.003
 1176SOL    HW2 4195   0.676   2.073   2.867
 1176SOL     MW 4196   0.734   2.117   2.919
 1177SOL     OW 4197   0.600   3.613   3.074
 1177SOL    HW1 4198   0.652   3.690   3.051
 1177SOL    HW2 4199   0.609   3.605   3.169
 1177SOL     MW 4200   0.609   3.620   3.085
 1178SOL     OW 4201   1.502   3.198   3.306
 1178SOL    HW1 4202   1.487   3.127   3.369
 1178SOL    HW2 4203   1.548   3.156   3.234
 1178SOL     MW 4204   1.508   3.182   3.306
 1179SOL     OW 4205   0.756   2.972   3.235
 1179SOL    HW1 4206   0.815   2.918   3.288
 1179SOL    HW2 4207   0.771   2.944   3.145
 1179SOL     MW 4208   0.766   2.961   3.231
 1180SOL     OW 4209   1.567   3.461   3.407
 1180SOL    HW1 4210   1.609   3.446   3.492
 1180SOL    HW2 4211   1.558   3.374   3.369
 1180SOL     MW 4212   1.571   3.449   3.414
 1181SOL     OW 4213   0.234   2.853   2.182
 1181SOL    HW1 4214   0.171   2.869   2.111
 1181SOL    HW2 4215   0.181   2.816   2.253
 1181SOL     MW 4216   0.219   2.850   2.182
 1182SOL     OW 4217   1.129   3.438   2.193
 1182SOL    HW1 4218   1.137   3.356   2.144
 1182SOL    HW2 4219   1.048   3.477   2.160
 1182SOL     MW 4220   1.119   3.433   2.183
 1183SOL     OW 4221   0.388   3.596   2.762
 1183SOL    HW1 4222   0.392   3.507   2.797
 1183SOL    HW2 4223   0.414   3.587   2.671
 1183SOL     MW 4224   0.391   3.584   2.754
 1184SOL     OW 4225   1.005   3.074   3.005
 1184SOL    HW1 4226   0.937   3.008   3.021
 1184SOL    HW2 4227   1.023   3.068   2.912
 1184SOL     MW 4228   0.998   3.065   2.996
 1185SOL     OW 4229   0.998   2.213   2.826
 1185SOL    HW1 4230   0.928   2.165   2.871
 1185SOL    HW2 4231   1.030   2.276   2.890
 1185SOL     MW 4232   0.993   2.215   2.840
 1186SOL     OW 4233   0.370   3.164   3.704
 1186SOL    HW1 4234   0.442   3.166   3.641
 1186SOL    HW2 4235   0.340   3.073   3.703
 1186SOL     MW 4236   0.375   3.153   3.696
 1187SOL     OW 4237   1.454   1.927   3.171
 1187SOL    HW1 4238   1.525   1.873   3.135
 1187SOL    HW2 4239   1.453   1.906   3.264
 1187SOL     MW 4240   1.463   1.918   3.179
 1188SOL     OW 4241   1.654   3.457   3.655
 1188SOL    HW1 4242   1.627   3.454   3.746
 1188SOL    HW2 4243   1.750   3.461   3.658
 1188SOL     MW 4244   1.664   3.457   3.667
 1189SOL     OW 4245   0.465   2.319   2.639
 1189SOL    HW1 4246   0.536   2.267   2.602
 1189SOL    HW2 4247   0.451   2.284   2.726
 1189SOL     MW 4248   0.473   2.308   2.646
 1190SOL     OW 4249   1.101   2.260   2.363
 1190SOL    HW1 4250   1.123   2.197   2.295
 1190SOL    HW2 4251   1.006   2.252   2.374
 1190SOL     MW 4252   1.091   2.251   2.355
 1191SOL     OW 4253   0.186   1.950   2.295
 1191SOL    HW1 4254   0.257   1.971   2.234
 1191SOL    HW2 4255   0.140   1.878   2.253
 1191SOL     MW 4256   0.190   1.944   2.281
 1192SOL     OW 4257   0.017   2.417   3.438
 1192SOL    HW1 4258   0.081   2.483   3.413
 1192SOL    HW2 4259  -0.064   2.444   3.395
 1192SOL     MW 4260   0.015   2.429   3.430
 1193SOL     OW 4261   1.755   3.324   2.395
 1193SOL    HW1 4262   1.725   3.257   2.456
 1193SOL    HW2 4263   1.849   3.330   2.409
 1193SOL     MW 4264   1.763   3.316   2.405
 1194SOL     OW 4265   1.311   3.001   2.325
 1194SOL    HW1 4266   1.283   3.087   2.358
 1194SOL    HW2 4267   1.339   3.017   2.235
 1194SOL     MW 4268   1.311   3.015   2.317
 1195SOL     OW 4269   0.973   1.921   2.378
 1195SOL    HW1 4270   1.010   1.980   2.443
 1195SOL    HW2 4271   0.950   1.977   2.304
 1195SOL     MW 4272   0.974   1.936   2.377
 1196SOL     OW 4273   0.202   2.643   3.379
 1196SOL    HW1 4274   0.223   2.712   3.317
 1196SOL    HW2 4275   0.282   2.590   3.384
 1196SOL     MW 4276   0.215   2.644   3.373
 1197SOL     OW 4277   1.738   2.734   2.501
 1197SOL    HW1 4278   1.832   2.723   2.489
 1197SOL    HW2 4279   1.714   2.806   2.442
 1197SOL     MW 4280   1.748   2.742   2.492
 1198SOL     OW 4281   0.394   2.612   2.274
 1198SOL    HW1 4282   0.394   2.707   2.259
 1198SOL    HW2 4283   0.471   2.596   2.328
 1198SOL     MW 4284   0.404   2.623   2.279
 1199SOL     OW 4285   1.170   2.471   3.338
 1199SOL    HW1 4286   1.206   2.444   3.254
 1199SOL    HW2 4287   1.083   2.505   3.317
 1199SOL     MW 4288   1.164   2.472   3.325
 1200SOL     OW 4289   0.153   2.343   2.563
 1200SOL    HW1 4290   0.215   2.350   2.636
 1200SOL    HW2 4291   0.153   2.250   2.540
 1200SOL     MW 4292   0.161   2.332   2.570
 1201SOL     OW 4293   0.835   2.604   3.047
 1201SOL    HW1 4294   0.793   2.522   3.023
 1201SOL    HW2 4295   0.836   2.603   3.143
 1201SOL     MW 4296   0.828   2.593   3.056
 1202SOL     OW 4297   0.639   2.074   3.152
 1202SOL    HW1 4298   0.570   2.137   3.173
 1202SOL    HW2 4299   0.666   2.038   3.237
 1202SOL     MW 4300   0.633   2.077   3.165
 1203SOL     OW 4301   0.022   2.915   2.021
 1203SOL    HW1 4302  -0.009   2.980   2.084
 1203SOL    HW2 4303  -0.029   2.837   2.040
 1203SOL     MW 4304   0.012   2.912   2.031
 1204SOL     OW 4305   1.434   1.927   2.769
 1204SOL    HW1 4306   1.522   1.936   2.806
 1204SOL    HW2 4307   1.444   1.868   2.695
 1204SOL     MW 4308   1.448   1.921   2.763
 1205SOL     OW 4309   0.606   3.715   1.963
 1205SOL    HW1 4310   0.511   3.715   1.955
 1205SOL    HW2 4311   0.622   3.661   2.041
 1205SOL     MW 4312   0.596   3.709   1.972
 1206SOL     OW 4313   0.334   2.892   3.558
 1206SOL    HW1 4314   0.288   2.808   3.560
 1206SOL    HW2 4315   0.391   2.886   3.482
 1206SOL     MW 4316   0.336   2.880   3.550
 1207SOL     OW 4317   1.451   2.535   1.879
 1207SOL    HW1 4318   1.379   2.511   1.821
 1207SOL    HW2 4319   1.517   2.572   1.821
 1207SOL     MW 4320   1.450   2.537   1.864
 1208SOL     OW 4321   0.585   3.267   2.559
 1208SOL    HW1 4322   0.650   3.200   2.580
 1208SOL    HW2 4323   0.637   3.344   2.536
 1208SOL     MW 4324   0.600   3.269   2.558
 1209SOL     OW 4325   0.846   2.432   2.689
 1209SOL    HW1 4326   0.786   2.450   2.761
 1209SOL    HW2 4327   0.880   2.344   2.708
 1209SOL     MW 4328   0.842   2.422   2.702
 1210SOL     OW 4329   1.787   1.931   3.358
 1210SOL    HW1 4330   1.708   1.977   3.386
 1210SOL    HW2 4331   1.822   1.985   3.287
 1210SOL     MW 4332   1.781   1.944   3.352
 1211SOL     OW 4333   1.071   3.015   2.708
 1211SOL    HW1 4334   1.163   2.996   2.726
 1211SOL    HW2 4335   1.044   2.945   2.648
 1211SOL     MW 4336   1.079   3.003   2.702
 1212SOL     OW 4337   1.345   3.253   2.804
 1212SOL    HW1 4338   1.318   3.337   2.769
 1212SOL    HW2 4339   1.305   3.248   2.891
 1212SOL     MW 4340   1.338   3.262   2.810
 1213SOL     OW 4341   0.277   2.559   2.842
 1213SOL    HW1 4342   0.227   2.558   2.923
 1213SOL    HW2 4343   0.297   2.651   2.826
 1213SOL     MW 4344   0.273   2.571   2.850
 1214SOL     OW 4345   1.583   2.041   2.165
 1214SOL    HW1 4346   1.576   2.045   2.260
 1214SOL    HW2 4347   1.595   2.132   2.138
 1214SOL     MW 4348   1.584   2.054   2.173
 1215SOL     OW 4349   0.872   2.604   2.279
 1215SOL    HW1 4350   0.852   2.590   2.186
 1215SOL    HW2 4351   0.965   2.583   2.286
 1215SOL     MW 4352   0.882   2.599   2.268
 1216SOL     OW 4353   0.199   2.227   3.583
 1216SOL    HW1 4354   0.156   2.286   3.520
 1216SOL    HW2 4355   0.267   2.282   3.623
 1216SOL     MW 4356   0.203   2.242   3.580
 1217SOL     OW 4357   1.311   2.847   3.128
 1217SOL    HW1 4358   1.374   2.844   3.201
 1217SOL    HW2 4359   1.227   2.865   3.170
 1217SOL     MW 4360   1.307   2.849   3.143
 1218SOL     OW 4361   0.855   3.562   2.317
 1218SOL    HW1 4362   0.913   3.633   2.344
 1218SOL    HW2 4363   0.878   3.490   2.375
 1218SOL     MW 4364   0.866   3.562   2.328
 1219SOL     OW 4365   1.650   2.024   2.907
 1219SOL    HW1 4366   1.695   1.942   2.926
 1219SOL    HW2 4367   1.670   2.080   2.983
 1219SOL     MW 4368   1.660   2.020   2.919
 1220SOL     OW 4369   0.098   1.867   3.006
 1220SOL    HW1 4370   0.089   1.868   2.911
 1220SOL    HW2 4371   0.192   1.879   3.021
 1220SOL     MW 4372   0.110   1.870   2.997
 1221SOL     OW 4373   1.735   3.060   2.626
 1221SOL    HW1 4374   1.714   3.006   2.549
 1221SOL    HW2 4375   1.831   3.058   2.630
 1221SOL     MW 4376   1.744   3.053   2.615
 1222SOL     OW 4377   0.427   3.205   3.369
 1222SOL    HW1 4378   0.348   3.155   3.392
 1222SOL    HW2 4379   0.497   3.164   3.419
 1222SOL     MW 4380   0.425   3.193   3.379
 1223SOL     OW 4381   0.311   1.994   2.052
 1223SOL    HW1 4382   0.240   2.049   2.020
 1223SOL    HW2 4383   0.353   1.960   1.973
 1223SOL     MW 4384   0.307   1.996   2.038
 1224SOL     OW 4385   0.067   2.093   1.901
 1224SOL    HW1 4386   0.034   2.172   1.945
 1224SOL    HW2 4387   0.122   2.126   1.830
 1224SOL     MW 4388   0.070   2.107   1.898
 1225SOL     OW 4389   0.101   3.350   2.090
 1225SOL    HW1 4390   0.118   3.434   2.132
 1225SOL    HW2 4391   0.136   3.359   2.002
 1225SOL     MW 4392   0.106   3.363   2.084
 1226SOL     OW 4393   1.736   2.707   3.993
 1226SOL    HW1 4394   1.777   2.649   4.058
 1226SOL    HW2 4395   1.643   2.699   4.010
 1226SOL     MW 4396   1.730   2.699   4.003
 1227SOL     OW 4397   0.530   2.890   4.222
 1227SOL    HW1 4398   0.620   2.865   4.206
 1227SOL    HW2 4399   0.526   2.983   4.199
 1227SOL     MW 4400   0.542   2.899   4.217
 1228SOL     OW 4401   0.655   2.129   4.250
 1228SOL    HW1 4402   0.713   2.205   4.252
 1228SOL    HW2 4403   0.590   2.150   4.183
 1228SOL     MW 4404   0.654   2.141   4.241
 1229SOL     OW 4405   0.742   3.056   4.425
 1229SOL    HW1 4406   0.822   3.059   4.477
 1229SOL    HW2 4407   0.770   3.023   4.339
 1229SOL     MW 4408   0.756   3.052   4.420
 1230SOL     OW 4409   0.519   2.560   4.416
 1230SOL    HW1 4410   0.504   2.480   4.467
 1230SOL    HW2 4411   0.601   2.595   4.450
 1230SOL     MW 4412   0.527   2.552   4.428
 1231SOL     OW 4413   0.104   3.646   4.572
 1231SOL    HW1 4414   0.193   3.638   4.607
 1231SOL    HW2 4415   0.068   3.558   4.577
 1231SOL     MW 4416   0.111   3.633   4.577
 1232SOL     OW 4417   1.369   3.038   3.941
 1232SOL    HW1 4418   1.287   3.074   3.907
 1232SOL    HW2 4419   1.437   3.081   3.890
 1232SOL     MW 4420   1.367   3.048   3.929
 1233SOL     OW 4421   0.930   2.817   4.417
 1233SOL    HW1 4422   0.844   2.804   4.457
 1233SOL    HW2 4423   0.983   2.744   4.449
 1233SOL     MW 4424   0.926   2.806   4.426
 1234SOL     OW 4425   0.338   3.469   5.202
 1234SOL    HW1 4426   0.246   3.445   5.187
 1234SOL    HW2 4427   0.382   3.386   5.219
 1234SOL     MW 4428   0.332   3.454   5.201
 1235SOL     OW 4429   0.921   3.179   4.134
 1235SOL    HW1 4430   0.898   3.241   4.202
 1235SOL    HW2 4431   0.878   3.097   4.160
 1235SOL     MW 4432   0.913   3.175   4.145
 1236SOL     OW 4433   1.794   2.180   4.590
 1236SOL    HW1 4434   1.731   2.160   4.659
 1236SOL    HW2 4435   1.784   2.109   4.527
 1236SOL     MW 4436   1.784   2.167   4.591
 1237SOL     OW 4437   0.418   2.152   4.102
 1237SOL    HW1 4438   0.392   2.114   4.018
 1237SOL    HW2 4439   0.355   2.222   4.118
 1237SOL     MW 4440   0.407   2.155   4.093
 1238SOL     OW 4441   0.253   3.113   4.139
 1238SOL    HW1 4442   0.201   3.181   4.095
 1238SOL    HW2 4443   0.250   3.039   4.079
 1238SOL     MW 4444   0.245   3.112   4.126
 1239SOL     OW 4445   1.850   2.349   3.892
 1239SOL    HW1 4446   1.759   2.351   3.920
 1239SOL    HW2 4447   1.895   2.411   3.950
 1239SOL     MW 4448   1.843   2.357   3.902
 1240SOL     OW 4449   0.136   3.467   4.866
 1240SOL    HW1 4450   0.119   3.413   4.943
 1240SOL    HW2 4451   0.124   3.557   4.896
 1240SOL     MW 4452   0.133   3.471   4.880
 1241SOL     OW 4453   1.502   2.930   4.634
 1241SOL    HW1 4454   1.505   2.864   4.565
 1241SOL    HW2 4455   1.587   2.973   4.630
 1241SOL     MW 4456   1.514   2.926   4.625
 1242SOL     OW 4457   1.122   2.533   4.203
 1242SOL    HW1 4458   1.148   2.557   4.114
 1242SOL    HW2 4459   1.104   2.440   4.199
 1242SOL     MW 4460   1.124   2.525   4.190
 1243SOL     OW 4461   0.443   3.569   4.372
 1243SOL    HW1 4462   0.475   3.657   4.350
 1243SOL    HW2 4463   0.396   3.541   4.294
 1243SOL     MW 4464   0.442   3.577   4.359
 1244SOL     OW 4465   1.827   1.931   4.421
 1244SOL    HW1 4466   1.881   1.882   4.483
 1244SOL    HW2 4467   1.770   1.865   4.382
 1244SOL     MW 4468   1.827   1.915   4.423
 1245SOL     OW 4469   0.159   3.629   3.949
 1245SOL    HW1 4470   0.188   3.719   3.941
 1245SOL    HW2 4471   0.109   3.612   3.870
 1245SOL     MW 4472   0.157   3.637   3.938
 1246SOL     OW 4473   0.946   1.884   4.834
 1246SOL    HW1 4474   0.905   1.962   4.796
 1246SOL    HW2 4475   1.040   1.902   4.829
 1246SOL     MW 4476   0.952   1.896   4.829
 1247SOL     OW 4477   0.961   2.562   3.864
 1247SOL    HW1 4478   0.963   2.509   3.785
 1247SOL    HW2 4479   1.049   2.599   3.870
 1247SOL     MW 4480   0.973   2.561   3.853
 1248SOL     OW 4481   1.575   2.488   4.200
 1248SOL    HW1 4482   1.614   2.488   4.287
 1248SOL    HW2 4483   1.516   2.564   4.200
 1248SOL     MW 4484   1.572   2.499   4.211
 1249SOL     OW 4485   0.188   2.088   4.395
 1249SOL    HW1 4486   0.179   2.028   4.321
 1249SOL    HW2 4487   0.121   2.059   4.458
 1249SOL     MW 4488   0.178   2.075   4.393
 1250SOL     OW 4489   1.131   3.181   3.956
 1250SOL    HW1 4490   1.081   3.183   4.038
 1250SOL    HW2 4491   1.065   3.199   3.888
 1250SOL     MW 4492   1.117   3.183   3.958
 1251SOL     OW 4493   0.594   3.599   4.064
 1251SOL    HW1 4494   0.515   3.557   4.097
 1251SOL    HW2 4495   0.660   3.582   4.131
 1251SOL     MW 4496   0.593   3.591   4.077
 1252SOL     OW 4497   0.730   3.014   3.771
 1252SOL    HW1 4498   0.652   2.960   3.758
 1252SOL    HW2 4499   0.701   3.087   3.824
 1252SOL     MW 4500   0.716   3.016   3.776
 1253SOL     OW 4501   1.856   2.754   4.963
 1253SOL    HW1 4502   1.872   2.792   4.876
 1253SOL    HW2 4503   1.890   2.820   5.024
 1253SOL     MW 4504   1.863   2.767   4.959
 1254SOL     OW 4505   0.119   2.536   4.928
 1254SOL    HW1 4506   0.181   2.566   4.994
 1254SOL    HW2 4507   0.053   2.605   4.922
 1254SOL     MW 4508   0.118   2.549   4.935
 1255SOL     OW 4509   0.760   2.093   3.836
 1255SOL    HW1 4510   0.708   2.013   3.824
 1255SOL    HW2 4511   0.847   2.070   3.804
 1255SOL     MW 4512   0.763   2.079   3.830
 1256SOL     OW 4513   0.266   2.964   4.887
 1256SOL    HW1 4514   0.319   3.039   4.912
 1256SOL    HW2 4515   0.185   3.002   4.853
 1256SOL     MW 4516   0.262   2.979   4.887
 1257SOL     OW 4517   0.806   2.868   4.875
 1257SOL    HW1 4518   0.834   2.777   4.887
 1257SOL    HW2 4519   0.735   2.862   4.811
 1257SOL     MW 4520   0.799   2.856   4.870
 1258SOL     OW 4521   0.121   2.733   4.293
 1258SOL    HW1 4522   0.212   2.748   4.320
 1258SOL    HW2 4523   0.124   2.654   4.239
 1258SOL     MW 4524   0.133   2.725   4.291
 1259SOL     OW 4525   0.748   3.665   4.667
 1259SOL    HW1 4526   0.837   3.680   4.697
 1259SOL    HW2 4527   0.743   3.712   4.583
 1259SOL     MW 4528   0.758   3.673   4.660
 1260SOL     OW 4529   0.129   3.345   4.332
 1260SOL    HW1 4530   0.101   3.384   4.414
 1260SOL    HW2 4531   0.149   3.254   4.354
 1260SOL     MW 4532   0.127   3.337   4.345
 1261SOL     OW 4533   0.962   3.388   4.367
 1261SOL    HW1 4534   1.045   3.342   4.351
 1261SOL    HW2 4535   0.952   3.387   4.463
 1261SOL     MW 4536   0.972   3.381   4.377
 1262SOL     OW 4537   0.695   3.445   3.772
 1262SOL    HW1 4538   0.635   3.514   3.742
 1262SOL    HW2 4539   0.640   3.387   3.825
 1262SOL     MW 4540   0.679   3.447   3.774
 1263SOL     OW 4541   1.133   2.090   3.995
 1263SOL    HW1 4542   1.066   2.066   3.932
 1263SOL    HW2 4543   1.198   2.139   3.944
 1263SOL     MW 4544   1.133   2.092   3.980
 1264SOL     OW 4545   1.200   2.612   4.703
 1264SOL    HW1 4546   1.213   2.706   4.713
 1264SOL    HW2 4547   1.161   2.602   4.617
 1264SOL     MW 4548   1.196   2.623   4.693
 1265SOL     OW 4549   1.451   2.390   4.502
 1265SOL    HW1 4550   1.396   2.311   4.501
 1265SOL    HW2 4551   1.433   2.431   4.586
 1265SOL     MW 4552   1.441   2.385   4.511
 1266SOL     OW 4553   1.070   2.594   4.459
 1266SOL    HW1 4554   1.007   2.526   4.483
 1266SOL    HW2 4555   1.090   2.575   4.367
 1266SOL     MW 4556   1.064   2.581   4.451
 1267SOL     OW 4557   0.326   3.489   4.161
 1267SOL    HW1 4558   0.287   3.536   4.087
 1267SOL    HW2 4559   0.260   3.424   4.186
 1267SOL     MW 4560   0.313   3.487   4.155
 1268SOL     OW 4561   0.818   2.898   4.185
 1268SOL    HW1 4562   0.820   2.872   4.092
 1268SOL    HW2 4563   0.876   2.835   4.228
 1268SOL     MW 4564   0.826   2.887   4.179
 1269SOL     OW 4565   1.328   2.142   4.518
 1269SOL    HW1 4566   1.356   2.074   4.579
 1269SOL    HW2 4567   1.242   2.113   4.488
 1269SOL     MW 4568   1.321   2.129   4.522
 1270SOL     OW 4569   1.308   2.246   3.853
 1270SOL    HW1 4570   1.281   2.312   3.789
 1270SOL    HW2 4571   1.378   2.289   3.903
 1270SOL     MW 4572   1.313   2.259   3.850
 1271SOL     OW 4573   0.976   1.951   3.790
 1271SOL    HW1 4574   1.032   1.943   3.712
 1271SOL    HW2 4575   0.953   1.861   3.812
 1271SOL     MW 4576   0.981   1.938   3.783
 1272SOL     OW 4577   1.481   2.802   3.995
 1272SOL    HW1 4578   1.448   2.891   3.985
 1272SOL    HW2 4579   1.446   2.773   4.080
 1272SOL     MW 4580   1.471   2.811   4.006
 1273SOL     OW 4581   0.411   3.389   4.824
 1273SOL    HW1 4582   0.456   3.451   4.881
 1273SOL    HW2 4583   0.318   3.408   4.837
 1273SOL     MW 4584   0.404   3.399   4.831
 1274SOL     OW 4585   1.128   2.813   4.030
 1274SOL    HW1 4586   1.038   2.834   4.005
 1274SOL    HW2 4587   1.155   2.886   4.086
 1274SOL     MW 4588   1.120   2.825   4.033
 1275SOL     OW 4589   0.628   3.162   4.722
 1275SOL    HW1 4590   0.621   3.141   4.816
 1275SOL    HW2 4591   0.546   3.130   4.685
 1275SOL     MW 4592   0.616   3.156   4.729
 1276SOL     OW 4593   0.757   1.929   4.437
 1276SOL    HW1 4594   0.686   1.990   4.419
 1276SOL    HW2 4595   0.808   1.926   4.356
 1276SOL     MW 4596   0.753   1.935   4.424
 1277SOL     OW 4597   0.515   3.169   4.186
 1277SOL    HW1 4598   0.508   3.201   4.276
 1277SOL    HW2 4599   0.425   3.153   4.158
 1277SOL     MW 4600   0.503   3.171   4.193
 1278SOL     OW 4601   1.110   3.562   5.095
 1278SOL    HW1 4602   1.030   3.547   5.045
 1278SOL    HW2 4603   1.117   3.657   5.102
 1278SOL     MW 4604   1.101   3.573   5.089
 1279SOL     OW 4605   0.518   2.453   3.900
 1279SOL    HW1 4606   0.484   2.509   3.970
 1279SOL    HW2 4607   0.589   2.403   3.940
 1279SOL     MW 4608   0.524   2.454   3.914
 1280SOL     OW 4609   1.614   3.204   4.722
 1280SOL    HW1 4610   1.649   3.186   4.635
 1280SOL    HW2 4611   1.519   3.205   4.709
 1280SOL     MW 4612   1.606   3.201   4.709
 1281SOL     OW 4613   1.574   2.339   3.964
 1281SOL    HW1 4614   1.566   2.410   3.901
 1281SOL    HW2 4615   1.592   2.383   4.047
 1281SOL     MW 4616   1.575   2.353   3.966
 1282SOL     OW 4617   0.434   1.994   4.393
 1282SOL    HW1 4618   0.484   2.037   4.324
 1282SOL    HW2 4619   0.349   2.038   4.393
 1282SOL     MW 4620   0.431   2.007   4.384
 1283SOL     OW 4621   1.243   2.601   3.939
 1283SOL    HW1 4622   1.290   2.619   3.858
 1283SOL    HW2 4623   1.209   2.685   3.967
 1283SOL     MW 4624   1.245   2.615   3.932
 1284SOL     OW 4625   0.356   2.779   4.433
 1284SOL    HW1 4626   0.414   2.835   4.381
 1284SOL    HW2 4627   0.400   2.694   4.435
 1284SOL     MW 4628   0.369   2.776   4.426
 1285SOL     OW 4629   1.082   2.093   4.429
 1285SOL    HW1 4630   1.102   2.168   4.373
 1285SOL    HW2 4631   1.062   2.132   4.514
 1285SOL     MW 4632   1.083   2.109   4.433
 1286SOL     OW 4633   0.978   3.343   3.761
 1286SOL    HW1 4634   1.005   3.421   3.713
 1286SOL    HW2 4635   0.885   3.358   3.780
 1286SOL     MW 4636   0.969   3.356   3.757
 1287SOL     OW 4637   1.692   2.311   4.839
 1287SOL    HW1 4638   1.625   2.344   4.899
 1287SOL    HW2 4639   1.735   2.389   4.805
 1287SOL     MW 4640   1.690   2.326   4.843
 1288SOL     OW 4641   1.870   3.031   4.809
 1288SOL    HW1 4642   1.863   2.971   4.734
 1288SOL    HW2 4643   1.796   3.091   4.798
 1288SOL     MW 4644   1.860   3.031   4.798
 1289SOL     OW 4645   1.326   1.903   3.948
 1289SOL    HW1 4646   1.400   1.947   3.991
 1289SOL    HW2 4647   1.250   1.957   3.970
 1289SOL     MW 4648   1.326   1.915   3.956
 1290SOL     OW 4649   0.746   2.121   4.780
 1290SOL    HW1 4650   0.719   2.123   4.871
 1290SOL    HW2 4651   0.676   2.073   4.735
 1290SOL     MW 4652   0.734   2.117   4.787
 1291SOL     OW 4653   0.576   2.929   5.291
 1291SOL    HW1 4654   0.613   2.934   5.203
 1291SOL    HW2 4655   0.615   3.002   5.338
 1291SOL     MW 4656   0.586   2.939   5.286
 1292SOL     OW 4657   0.759   2.344   3.952
 1292SOL    HW1 4658   0.832   2.393   3.915
 1292SOL    HW2 4659   0.775   2.253   3.926
 1292SOL     MW 4660   0.771   2.339   3.945
 1293SOL     OW 4661   1.227   1.940   4.866
 1293SOL    HW1 4662   1.282   1.949   4.788
 1293SOL    HW2 4663   1.282   1.974   4.937
 1293SOL     MW 4664   1.241   1.945   4.865
 1294SOL     OW 4665   0.234   2.853   4.050
 1294SOL    HW1 4666   0.171   2.869   3.979
 1294SOL    HW2 4667   0.181   2.816   4.121
 1294SOL     MW 4668   0.219   2.850   4.050
 1295SOL     OW 4669   0.590   3.207   3.909
 1295SOL    HW1 4670   0.605   3.183   4.001
 1295SOL    HW2 4671   0.498   3.185   3.893
 1295SOL     MW 4672   0.580   3.200   3.919
 1296SOL     OW 4673   1.129   3.438   4.061
 1296SOL    HW1 4674   1.137   3.356   4.012
 1296SOL    HW2 4675   1.048   3.477   4.028
 1296SOL     MW 4676   1.119   3.433   4.051
 1297SOL     OW 4677   0.998   2.213   4.694
 1297SOL    HW1 4678   0.928   2.165   4.739
 1297SOL    HW2 4679   1.030   2.276   4.758
 1297SOL     MW 4680   0.993   2.215   4.708
 1298SOL     OW 4681   0.465   2.319   4.507
 1298SOL    HW1 4682   0.536   2.267   4.470
 1298SOL    HW2 4683   0.451   2.284   4.594
 1298SOL     MW 4684   0.473   2.308   4.514
 1299SOL     OW 4685   1.101   2.260   4.231
 1299SOL    HW1 4686   1.123   2.197   4.163
 1299SOL    HW2 4687   1.006   2.252   4.242
 1299SOL     MW 4688   1.091   2.251   4.223
 1300SOL     OW 4689   0.186   1.950   4.163
 1300SOL    HW1 4690   0.257   1.971   4.102
 1300SOL    HW2 4691   0.140   1.878   4.121
 1300SOL     MW 4692   0.190   1.944   4.149
 1301SOL     OW 4693   0.973   1.921   4.246
 1301SOL    HW1 4694   1.010   1.980   4.311
 1301SOL    HW2 4695   0.950   1.977   4.172
 1301SOL     MW 4696   0.974   1.936   4.245
 1302SOL     OW 4697   1.826   2.803   4.668
 1302SOL    HW1 4698   1.817   2.835   4.579
 1302SOL    HW2 4699   1.779   2.719   4.668
 1302SOL     MW 4700   1.819   2.796   4.658
 1303SOL     OW 4701   0.202   2.643   5.247
 1303SOL    HW1 4702   0.223   2.712   5.185
 1303SOL    HW2 4703   0.282   2.590   5.252
 1303SOL     MW 4704   0.215   2.644   5.241
 1304SOL     OW 4705   1.738   2.734   4.369
 1304SOL    HW1 4706   1.832   2.723   4.357
 1304SOL    HW2 4707   1.714   2.806   4.310
 1304SOL     MW 4708   1.748   2.742   4.360
 1305SOL     OW 4709   0.394   2.612   4.142
 1305SOL    HW1 4710   0.394   2.707   4.127
 1305SOL    HW2 4711   0.471   2.596   4.196
 1305SOL     MW 4712   0.404   2.623   4.147
 1306SOL     OW 4713   1.700   3.683   3.963
 1306SOL    HW1 4714   1.767   3.716   3.903
 1306SOL    HW2 4715   1.657   3.762   3.997
 1306SOL     MW 4716   1.702   3.698   3.959
 1307SOL     OW 4717   0.022   2.915   3.889
 1307SOL    HW1 4718  -0.009   2.980   3.952
 1307SOL    HW2 4719  -0.029   2.837   3.908
 1307SOL     MW 4720   0.012   2.912   3.899
 1308SOL     OW 4721   1.434   1.927   4.637
 1308SOL    HW1 4722   1.522   1.936   4.674
 1308SOL    HW2 4723   1.444   1.868   4.563
 1308SOL     MW 4724   1.448   1.921   4.631
 1309SOL     OW 4725   1.466   2.666   4.481
 1309SOL    HW1 4726   1.546   2.681   4.430
 1309SOL    HW2 4727   1.459   2.571   4.487
 1309SOL     MW 4728   1.475   2.655   4.476
 1310SOL     OW 4729   0.606   3.715   3.831
 1310SOL    HW1 4730   0.511   3.715   3.823
 1310SOL    HW2 4731   0.622   3.661   3.909
 1310SOL     MW 4732   0.596   3.709   3.840
 1311SOL     OW 4733   0.585   3.267   4.427
 1311SOL    HW1 4734   0.650   3.200   4.448
 1311SOL    HW2 4735   0.637   3.344   4.404
 1311SOL     MW 4736   0.600   3.269   4.426
 1312SOL     OW 4737   0.846   2.432   4.557
 1312SOL    HW1 4738   0.786   2.450   4.629
 1312SOL    HW2 4739   0.880   2.344   4.576
 1312SOL     MW 4740   0.842   2.422   4.570
 1313SOL     OW 4741   1.071   3.015   4.576
 1313SOL    HW1 4742   1.163   2.996   4.594
 1313SOL    HW2 4743   1.044   2.945   4.516
 1313SOL     MW 4744   1.079   3.003   4.570
 1314SOL     OW 4745   0.864   2.835   3.931
 1314SOL    HW1 4746   0.850   2.747   3.896
 1314SOL    HW2 4747   0.815   2.892   3.872
 1314SOL     MW 4748   0.856   2.830   3.919
 1315SOL     OW 4749   1.345   3.253   4.672
 1315SOL    HW1 4750   1.318   3.337   4.637
 1315SOL    HW2 4751   1.305   3.248   4.759
 1315SOL     MW 4752   1.338   3.262   4.678
 1316SOL     OW 4753   1.264   3.201   4.940
 1316SOL    HW1 4754   1.275   3.168   5.029
 1316SOL    HW2 4755   1.183   3.160   4.909
 1316SOL     MW 4756   1.254   3.193   4.946
 1317SOL     OW 4757   0.277   2.559   4.710
 1317SOL    HW1 4758   0.227   2.558   4.791
 1317SOL    HW2 4759   0.297   2.651   4.694
 1317SOL     MW 4760   0.273   2.571   4.718
 1318SOL     OW 4761   1.583   2.041   4.033
 1318SOL    HW1 4762   1.576   2.045   4.128
 1318SOL    HW2 4763   1.595   2.132   4.006
 1318SOL     MW 4764   1.584   2.054   4.041
 1319SOL     OW 4765   0.872   2.604   4.147
 1319SOL    HW1 4766   0.852   2.590   4.054
 1319SOL    HW2 4767   0.965   2.583   4.154
 1319SOL     MW 4768   0.882   2.599   4.136
 1320SOL     OW 4769   1.311   2.847   4.996
 1320SOL    HW1 4770   1.374   2.844   5.069
 1320SOL    HW2 4771   1.227   2.865   5.038
 1320SOL     MW 4772   1.307   2.849   5.011
 1321SOL     OW 4773   0.855   3.562   4.185
 1321SOL    HW1 4774   0.913   3.633   4.212
 1321SOL    HW2 4775   0.878   3.490   4.243
 1321SOL     MW 4776   0.866   3.562   4.196
 1322SOL     OW 4777   1.650   2.024   4.775
 1322SOL    HW1 4778   1.695   1.942   4.794
 1322SOL    HW2 4779   1.670   2.080   4.851
 1322SOL     MW 4780   1.660   2.020   4.787
 1323SOL     OW 4781   0.098   1.867   4.874
 1323SOL    HW1 4782   0.089   1.868   4.779
 1323SOL    HW2 4783   0.192   1.879   4.889
 1323SOL     MW 4784   0.110   1.870   4.865
 1324SOL     OW 4785   1.735   3.060   4.494
 1324SOL    HW1 4786   1.714   3.006   4.417
 1324SOL    HW2 4787   1.831   3.058   4.498
 1324SOL     MW 4788   1.744   3.053   4.483
 1325SOL     OW 4789   0.311   1.994   3.920
 1325SOL    HW1 4790   0.240   2.049   3.888
 1325SOL    HW2 4791   0.353   1.960   3.841
 1325SOL     MW 4792   0.307   1.996   3.906
 1326SOL     OW 4793   1.435   2.491   4.756
 1326SOL    HW1 4794   1.358   2.537   4.722
 1326SOL    HW2 4795   1.492   2.560   4.790
 1326SOL     MW 4796   1.432   2.506   4.756
 1327SOL     OW 4797   0.101   3.350   3.958
 1327SOL    HW1 4798   0.118   3.434   4.000
 1327SOL    HW2 4799   0.136   3.359   3.870
 1327SOL     MW 4800   0.106   3.363   3.952
 1328SOL     OW 4801   1.373   3.439   4.175
 1328SOL    HW1 4802   1.436   3.429   4.104
 1328SOL    HW2 4803   1.290   3.459   4.130
 1328SOL     MW 4804   1.370   3.440   4.160
 1329SOL     OW 4805   1.736   4.575   0.257
 1329SOL    HW1 4806   1.777   4.517   0.322
 1329SOL    HW2 4807   1.643   4.567   0.274
 1329SOL     MW 4808   1.730   4.567   0.267
 1330SOL     OW 4809   1.602   4.507   1.252
 1330SOL    HW1 4810   1.557   4.574   1.303
 1330SOL    HW2 4811   1.690   4.543   1.238
 1330SOL     MW 4812   1.608   4.520   1.256
 1331SOL     OW 4813   0.530   4.758   0.486
 1331SOL    HW1 4814   0.620   4.733   0.470
 1331SOL    HW2 4815   0.526   4.851   0.463
 1331SOL     MW 4816   0.542   4.767   0.481
 1332SOL     OW 4817   0.814   4.214   0.499
 1332SOL    HW1 4818   0.789   4.302   0.527
 1332SOL    HW2 4819   0.811   4.217   0.403
 1332SOL     MW 4820   0.810   4.226   0.491
 1333SOL     OW 4821   0.334   4.655   1.328
 1333SOL    HW1 4822   0.397   4.602   1.279
 1333SOL    HW2 4823   0.315   4.729   1.271
 1333SOL     MW 4824   0.340   4.657   1.315
 1334SOL     OW 4825   0.655   3.997   0.514
 1334SOL    HW1 4826   0.713   4.073   0.516
 1334SOL    HW2 4827   0.590   4.018   0.447
 1334SOL     MW 4828   0.654   4.009   0.505
 1335SOL     OW 4829   0.661   4.254   1.057
 1335SOL    HW1 4830   0.567   4.250   1.075
 1335SOL    HW2 4831   0.691   4.163   1.066
 1335SOL     MW 4832   0.652   4.242   1.060
 1336SOL     OW 4833   0.407   4.668   0.961
 1336SOL    HW1 4834   0.362   4.675   0.877
 1336SOL    HW2 4835   0.387   4.751   1.005
 1336SOL     MW 4836   0.399   4.680   0.955
 1337SOL     OW 4837   0.930   4.685   0.681
 1337SOL    HW1 4838   0.844   4.672   0.721
 1337SOL    HW2 4839   0.983   4.612   0.713
 1337SOL     MW 4840   0.926   4.674   0.690
 1338SOL     OW 4841   1.794   4.048   0.854
 1338SOL    HW1 4842   1.731   4.028   0.923
 1338SOL    HW2 4843   1.784   3.977   0.791
 1338SOL     MW 4844   1.784   4.035   0.855
 1339SOL     OW 4845   0.418   4.020   0.366
 1339SOL    HW1 4846   0.392   3.982   0.282
 1339SOL    HW2 4847   0.355   4.090   0.382
 1339SOL     MW 4848   0.407   4.023   0.357
 1340SOL     OW 4849   1.850   4.217   0.156
 1340SOL    HW1 4850   1.759   4.219   0.184
 1340SOL    HW2 4851   1.895   4.279   0.214
 1340SOL     MW 4852   1.843   4.225   0.166
 1341SOL     OW 4853   1.595   4.820   0.506
 1341SOL    HW1 4854   1.505   4.820   0.541
 1341SOL    HW2 4855   1.588   4.866   0.423
 1341SOL     MW 4856   1.582   4.826   0.500
 1342SOL     OW 4857   1.395   4.455   1.578
 1342SOL    HW1 4858   1.464   4.393   1.555
 1342SOL    HW2 4859   1.320   4.429   1.525
 1342SOL     MW 4860   1.395   4.442   1.569
 1343SOL     OW 4861   1.131   4.842   1.570
 1343SOL    HW1 4862   1.116   4.935   1.555
 1343SOL    HW2 4863   1.226   4.832   1.570
 1343SOL     MW 4864   1.140   4.852   1.567
 1344SOL     OW 4865   1.502   4.798   0.898
 1344SOL    HW1 4866   1.505   4.732   0.829
 1344SOL    HW2 4867   1.587   4.841   0.894
 1344SOL     MW 4868   1.514   4.794   0.889
 1345SOL     OW 4869   1.122   4.401   0.467
 1345SOL    HW1 4870   1.148   4.425   0.378
 1345SOL    HW2 4871   1.104   4.308   0.463
 1345SOL     MW 4872   1.124   4.393   0.454
 1346SOL     OW 4873   1.787   5.021   0.318
 1346SOL    HW1 4874   1.743   5.062   0.393
 1346SOL    HW2 4875   1.844   5.089   0.283
 1346SOL     MW 4876   1.789   5.035   0.323
 1347SOL     OW 4877   0.707   4.070   1.721
 1347SOL    HW1 4878   0.717   3.996   1.661
 1347SOL    HW2 4879   0.743   4.039   1.804
 1347SOL     MW 4880   0.713   4.056   1.723
 1348SOL     OW 4881   1.827   3.799   0.685
 1348SOL    HW1 4882   1.881   3.750   0.747
 1348SOL    HW2 4883   1.770   3.733   0.646
 1348SOL     MW 4884   1.827   3.783   0.687
 1349SOL     OW 4885   0.946   3.752   1.098
 1349SOL    HW1 4886   0.905   3.830   1.060
 1349SOL    HW2 4887   1.040   3.770   1.093
 1349SOL     MW 4888   0.952   3.764   1.093
 1350SOL     OW 4889   0.961   4.430   0.128
 1350SOL    HW1 4890   0.963   4.377   0.049
 1350SOL    HW2 4891   1.049   4.467   0.134
 1350SOL     MW 4892   0.973   4.429   0.117
 1351SOL     OW 4893   1.575   4.356   0.464
 1351SOL    HW1 4894   1.614   4.356   0.551
 1351SOL    HW2 4895   1.516   4.432   0.464
 1351SOL     MW 4896   1.572   4.367   0.475
 1352SOL     OW 4897   0.892   4.723   1.593
 1352SOL    HW1 4898   0.869   4.703   1.683
 1352SOL    HW2 4899   0.977   4.767   1.598
 1352SOL     MW 4900   0.899   4.726   1.605
 1353SOL     OW 4901   0.972   3.860   1.353
 1353SOL    HW1 4902   0.978   3.822   1.266
 1353SOL    HW2 4903   0.961   3.954   1.338
 1353SOL     MW 4904   0.973   3.868   1.341
 1354SOL     OW 4905   1.061   4.349   1.187
 1354SOL    HW1 4906   1.136   4.378   1.134
 1354SOL    HW2 4907   0.993   4.414   1.171
 1354SOL     MW 4908   1.062   4.361   1.177
 1355SOL     OW 4909   1.611   4.317   1.464
 1355SOL    HW1 4910   1.592   4.226   1.443
 1355SOL    HW2 4911   1.589   4.366   1.385
 1355SOL     MW 4912   1.606   4.310   1.451
 1356SOL     OW 4913   1.058   4.055   1.570
 1356SOL    HW1 4914   1.024   4.094   1.489
 1356SOL    HW2 4915   1.036   3.963   1.563
 1356SOL     MW 4916   1.051   4.048   1.560
 1357SOL     OW 4917   1.467   4.869   1.646
 1357SOL    HW1 4918   1.549   4.910   1.676
 1357SOL    HW2 4919   1.430   4.831   1.726
 1357SOL     MW 4920   1.473   4.870   1.661
 1358SOL     OW 4921   1.762   4.242   0.630
 1358SOL    HW1 4922   1.851   4.211   0.647
 1358SOL    HW2 4923   1.705   4.182   0.678
 1358SOL     MW 4924   1.765   4.230   0.639
 1359SOL     OW 4925   1.722   4.987   1.725
 1359SOL    HW1 4926   1.772   4.913   1.757
 1359SOL    HW2 4927   1.668   5.014   1.800
 1359SOL     MW 4928   1.722   4.981   1.738
 1360SOL     OW 4929   1.856   4.622   1.227
 1360SOL    HW1 4930   1.872   4.660   1.140
 1360SOL    HW2 4931   1.890   4.688   1.288
 1360SOL     MW 4932   1.863   4.635   1.223
 1361SOL     OW 4933   0.760   3.961   0.100
 1361SOL    HW1 4934   0.708   3.881   0.088
 1361SOL    HW2 4935   0.847   3.938   0.068
 1361SOL     MW 4936   0.763   3.947   0.094
 1362SOL     OW 4937   0.266   4.832   1.151
 1362SOL    HW1 4938   0.319   4.907   1.176
 1362SOL    HW2 4939   0.185   4.870   1.117
 1362SOL     MW 4940   0.262   4.847   1.151
 1363SOL     OW 4941   0.357   4.309   1.811
 1363SOL    HW1 4942   0.304   4.389   1.818
 1363SOL    HW2 4943   0.427   4.321   1.876
 1363SOL     MW 4944   0.359   4.322   1.819
 1364SOL     OW 4945   0.743   3.859   1.518
 1364SOL    HW1 4946   0.720   3.767   1.520
 1364SOL    HW2 4947   0.829   3.861   1.475
 1364SOL     MW 4948   0.750   3.849   1.514
 1365SOL     OW 4949   1.794   4.401   0.945
 1365SOL    HW1 4950   1.883   4.431   0.927
 1365SOL    HW2 4951   1.774   4.341   0.874
 1365SOL     MW 4952   1.803   4.398   0.934
 1366SOL     OW 4953   1.133   3.958   0.259
 1366SOL    HW1 4954   1.066   3.934   0.196
 1366SOL    HW2 4955   1.198   4.007   0.208
 1366SOL     MW 4956   1.133   3.960   0.244
 1367SOL     OW 4957   0.940   4.142   1.344
 1367SOL    HW1 4958   0.859   4.183   1.372
 1367SOL    HW2 4959   0.987   4.210   1.296
 1367SOL     MW 4960   0.935   4.157   1.342
 1368SOL     OW 4961   1.200   4.480   0.967
 1368SOL    HW1 4962   1.213   4.574   0.977
 1368SOL    HW2 4963   1.161   4.470   0.881
 1368SOL     MW 4964   1.196   4.491   0.957
 1369SOL     OW 4965   0.652   4.675   0.771
 1369SOL    HW1 4966   0.563   4.666   0.804
 1369SOL    HW2 4967   0.656   4.765   0.739
 1369SOL     MW 4968   0.641   4.686   0.771
 1370SOL     OW 4969   1.451   4.258   0.766
 1370SOL    HW1 4970   1.396   4.179   0.765
 1370SOL    HW2 4971   1.433   4.299   0.850
 1370SOL     MW 4972   1.441   4.253   0.775
 1371SOL     OW 4973   0.422   3.945   1.583
 1371SOL    HW1 4974   0.343   3.963   1.635
 1371SOL    HW2 4975   0.417   4.007   1.510
 1371SOL     MW 4976   0.412   3.955   1.580
 1372SOL     OW 4977   1.070   4.462   0.723
 1372SOL    HW1 4978   1.007   4.394   0.747
 1372SOL    HW2 4979   1.090   4.443   0.631
 1372SOL     MW 4980   1.064   4.449   0.715
 1373SOL     OW 4981   0.818   4.766   0.449
 1373SOL    HW1 4982   0.820   4.740   0.356
 1373SOL    HW2 4983   0.876   4.703   0.492
 1373SOL     MW 4984   0.826   4.755   0.443
 1374SOL     OW 4985   1.328   4.010   0.782
 1374SOL    HW1 4986   1.356   3.942   0.843
 1374SOL    HW2 4987   1.242   3.981   0.752
 1374SOL     MW 4988   1.321   3.997   0.786
 1375SOL     OW 4989   0.633   5.020   1.698
 1375SOL    HW1 4990   0.681   5.103   1.685
 1375SOL    HW2 4991   0.690   4.968   1.754
 1375SOL     MW 4992   0.647   5.024   1.704
 1376SOL     OW 4993   1.308   4.114   0.117
 1376SOL    HW1 4994   1.281   4.180   0.053
 1376SOL    HW2 4995   1.378   4.157   0.167
 1376SOL     MW 4996   1.313   4.127   0.114
 1377SOL     OW 4997   0.976   3.819   0.054
 1377SOL    HW1 4998   1.032   3.811  -0.024
 1377SOL    HW2 4999   0.953   3.729   0.076
 1377SOL     MW 5000   0.981   3.806   0.047
 1378SOL     OW 5001   1.481   4.670   0.259
 1378SOL    HW1 5002   1.448   4.759   0.249
 1378SOL    HW2 5003   1.446   4.641   0.344
 1378SOL     MW 5004   1.471   4.679   0.270
 1379SOL     OW 5005   1.851   4.786   1.442
 1379SOL    HW1 5006   1.766   4.799   1.401
 1379SOL    HW2 5007   1.831   4.750   1.529
 1379SOL     MW 5008   1.838   4.782   1.447
 1380SOL     OW 5009   0.475   4.708   0.051
 1380SOL    HW1 5010   0.398   4.721   0.107
 1380SOL    HW2 5011   0.439   4.672  -0.030
 1380SOL     MW 5012   0.461   4.704   0.048
 1381SOL     OW 5013   1.128   4.681   0.294
 1381SOL    HW1 5014   1.038   4.702   0.269
 1381SOL    HW2 5015   1.155   4.754   0.350
 1381SOL     MW 5016   1.120   4.693   0.297
 1382SOL     OW 5017   1.492   4.040   1.388
 1382SOL    HW1 5018   1.439   4.042   1.468
 1382SOL    HW2 5019   1.477   3.953   1.351
 1382SOL     MW 5020   1.484   4.030   1.393
 1383SOL     OW 5021   1.828   3.964   1.261
 1383SOL    HW1 5022   1.809   4.031   1.196
 1383SOL    HW2 5023   1.885   3.902   1.216
 1383SOL     MW 5024   1.832   3.965   1.247
 1384SOL     OW 5025   0.074   5.122   1.649
 1384SOL    HW1 5026   0.118   5.055   1.595
 1384SOL    HW2 5027  -0.011   5.084   1.669
 1384SOL     MW 5028   0.069   5.108   1.645
 1385SOL     OW 5029   1.504   4.666   1.464
 1385SOL    HW1 5030   1.509   4.719   1.544
 1385SOL    HW2 5031   1.466   4.583   1.492
 1385SOL     MW 5032   1.500   4.661   1.479
 1386SOL     OW 5033   0.518   4.321   0.164
 1386SOL    HW1 5034   0.484   4.377   0.234
 1386SOL    HW2 5035   0.589   4.271   0.204
 1386SOL     MW 5036   0.524   4.322   0.178
 1387SOL     OW 5037   1.043   4.720   1.355
 1387SOL    HW1 5038   1.086   4.755   1.433
 1387SOL    HW2 5039   1.026   4.797   1.301
 1387SOL     MW 5040   1.046   4.735   1.358
 1388SOL     OW 5041   1.574   4.207   0.228
 1388SOL    HW1 5042   1.566   4.278   0.165
 1388SOL    HW2 5043   1.592   4.251   0.311
 1388SOL     MW 5044   1.575   4.221   0.230
 1389SOL     OW 5045   0.434   3.862   0.657
 1389SOL    HW1 5046   0.484   3.905   0.588
 1389SOL    HW2 5047   0.349   3.906   0.657
 1389SOL     MW 5048   0.431   3.875   0.648
 1390SOL     OW 5049   0.193   4.924   1.517
 1390SOL    HW1 5050   0.221   4.877   1.595
 1390SOL    HW2 5051   0.114   4.879   1.488
 1390SOL     MW 5052   0.186   4.913   1.523
 1391SOL     OW 5053   1.243   4.469   0.203
 1391SOL    HW1 5054   1.290   4.487   0.122
 1391SOL    HW2 5055   1.209   4.553   0.231
 1391SOL     MW 5056   1.245   4.483   0.196
 1392SOL     OW 5057   0.356   4.647   0.697
 1392SOL    HW1 5058   0.414   4.703   0.645
 1392SOL    HW2 5059   0.400   4.562   0.699
 1392SOL     MW 5060   0.369   4.644   0.690
 1393SOL     OW 5061   1.842   4.734   1.712
 1393SOL    HW1 5062   1.755   4.714   1.748
 1393SOL    HW2 5063   1.896   4.660   1.737
 1393SOL     MW 5064   1.837   4.723   1.720
 1394SOL     OW 5065   0.018   4.373   0.416
 1394SOL    HW1 5066  -0.042   4.345   0.486
 1394SOL    HW2 5067   0.092   4.313   0.422
 1394SOL     MW 5068   0.020   4.362   0.425
 1395SOL     OW 5069   1.186   5.104   0.576
 1395SOL    HW1 5070   1.209   5.055   0.654
 1395SOL    HW2 5071   1.267   5.146   0.548
 1395SOL     MW 5072   1.199   5.104   0.583
 1396SOL     OW 5073   0.444   4.112   1.305
 1396SOL    HW1 5074   0.477   4.193   1.345
 1396SOL    HW2 5075   0.417   4.138   1.217
 1396SOL     MW 5076   0.443   4.126   1.299
 1397SOL     OW 5077   0.398   4.079   1.041
 1397SOL    HW1 5078   0.428   3.993   1.012
 1397SOL    HW2 5079   0.303   4.072   1.044
 1397SOL     MW 5080   0.390   4.068   1.039
 1398SOL     OW 5081   1.326   4.083   1.593
 1398SOL    HW1 5082   1.233   4.067   1.580
 1398SOL    HW2 5083   1.352   4.021   1.661
 1398SOL     MW 5084   1.316   4.073   1.600
 1399SOL     OW 5085   0.541   3.857   0.932
 1399SOL    HW1 5086   0.551   3.766   0.958
 1399SOL    HW2 5087   0.497   3.853   0.847
 1399SOL     MW 5088   0.537   3.845   0.924
 1400SOL     OW 5089   1.692   4.179   1.103
 1400SOL    HW1 5090   1.625   4.212   1.163
 1400SOL    HW2 5091   1.735   4.257   1.069
 1400SOL     MW 5092   1.690   4.194   1.107
 1401SOL     OW 5093   1.870   4.899   1.073
 1401SOL    HW1 5094   1.863   4.839   0.998
 1401SOL    HW2 5095   1.796   4.959   1.062
 1401SOL     MW 5096   1.860   4.899   1.062
 1402SOL     OW 5097   1.252   4.761   0.991
 1402SOL    HW1 5098   1.266   4.733   1.082
 1402SOL    HW2 5099   1.338   4.792   0.963
 1402SOL     MW 5100   1.265   4.762   1.000
 1403SOL     OW 5101   1.375   4.685   1.863
 1403SOL    HW1 5102   1.441   4.633   1.817
 1403SOL    HW2 5103   1.395   4.672   1.956
 1403SOL     MW 5104   1.386   4.676   1.870
 1404SOL     OW 5105   1.326   3.771   0.212
 1404SOL    HW1 5106   1.400   3.815   0.255
 1404SOL    HW2 5107   1.250   3.825   0.234
 1404SOL     MW 5108   1.326   3.783   0.220
 1405SOL     OW 5109   1.386   4.546   0.490
 1405SOL    HW1 5110   1.301   4.516   0.460
 1405SOL    HW2 5111   1.378   4.553   0.585
 1405SOL     MW 5112   1.374   4.544   0.499
 1406SOL     OW 5113   0.746   3.989   1.044
 1406SOL    HW1 5114   0.719   3.991   1.135
 1406SOL    HW2 5115   0.676   3.941   0.999
 1406SOL     MW 5116   0.734   3.985   1.051
 1407SOL     OW 5117   0.576   4.797   1.555
 1407SOL    HW1 5118   0.613   4.802   1.467
 1407SOL    HW2 5119   0.615   4.870   1.602
 1407SOL     MW 5120   0.586   4.807   1.550
 1408SOL     OW 5121   0.756   4.840   1.367
 1408SOL    HW1 5122   0.815   4.786   1.420
 1408SOL    HW2 5123   0.771   4.812   1.277
 1408SOL     MW 5124   0.766   4.829   1.363
 1409SOL     OW 5125   0.759   4.212   0.216
 1409SOL    HW1 5126   0.832   4.261   0.179
 1409SOL    HW2 5127   0.775   4.121   0.190
 1409SOL     MW 5128   0.771   4.207   0.209
 1410SOL     OW 5129   1.227   3.808   1.130
 1410SOL    HW1 5130   1.282   3.817   1.052
 1410SOL    HW2 5131   1.282   3.842   1.201
 1410SOL     MW 5132   1.241   3.813   1.129
 1411SOL     OW 5133   0.234   4.721   0.314
 1411SOL    HW1 5134   0.171   4.737   0.243
 1411SOL    HW2 5135   0.181   4.684   0.385
 1411SOL     MW 5136   0.219   4.718   0.314
 1412SOL     OW 5137   0.094   5.217   1.388
 1412SOL    HW1 5138   0.084   5.175   1.474
 1412SOL    HW2 5139   0.015   5.270   1.378
 1412SOL     MW 5140   0.083   5.218   1.399
 1413SOL     OW 5141   0.998   4.081   0.958
 1413SOL    HW1 5142   0.928   4.033   1.003
 1413SOL    HW2 5143   1.030   4.144   1.022
 1413SOL     MW 5144   0.993   4.083   0.972
 1414SOL     OW 5145   1.454   3.795   1.303
 1414SOL    HW1 5146   1.525   3.741   1.267
 1414SOL    HW2 5147   1.453   3.774   1.396
 1414SOL     MW 5148   1.463   3.786   1.311
 1415SOL     OW 5149   0.465   4.187   0.771
 1415SOL    HW1 5150   0.536   4.135   0.734
 1415SOL    HW2 5151   0.451   4.152   0.858
 1415SOL     MW 5152   0.473   4.176   0.778
 1416SOL     OW 5153   0.781   5.280   0.847
 1416SOL    HW1 5154   0.709   5.217   0.860
 1416SOL    HW2 5155   0.742   5.365   0.865
 1416SOL     MW 5156   0.765   5.283   0.850
 1417SOL     OW 5157   1.101   4.128   0.495
 1417SOL    HW1 5158   1.123   4.065   0.427
 1417SOL    HW2 5159   1.006   4.120   0.506
 1417SOL     MW 5160   1.091   4.119   0.487
 1418SOL     OW 5161   0.017   4.285   1.570
 1418SOL    HW1 5162   0.081   4.351   1.545
 1418SOL    HW2 5163  -0.064   4.312   1.527
 1418SOL     MW 5164   0.015   4.297   1.562
 1419SOL     OW 5165   1.311   4.869   0.457
 1419SOL    HW1 5166   1.283   4.955   0.490
 1419SOL    HW2 5167   1.339   4.885   0.367
 1419SOL     MW 5168   1.311   4.883   0.449
 1420SOL     OW 5169   1.826   4.671   0.932
 1420SOL    HW1 5170   1.817   4.703   0.843
 1420SOL    HW2 5171   1.779   4.587   0.932
 1420SOL     MW 5172   1.819   4.664   0.922
 1421SOL     OW 5173   1.738   4.602   0.633
 1421SOL    HW1 5174   1.832   4.591   0.621
 1421SOL    HW2 5175   1.714   4.674   0.574
 1421SOL     MW 5176   1.748   4.610   0.624
 1422SOL     OW 5177   0.353   3.813   1.228
 1422SOL    HW1 5178   0.396   3.897   1.248
 1422SOL    HW2 5179   0.426   3.751   1.221
 1422SOL     MW 5180   0.368   3.816   1.229
 1423SOL     OW 5181   0.835   4.472   1.179
 1423SOL    HW1 5182   0.793   4.390   1.155
 1423SOL    HW2 5183   0.836   4.471   1.275
 1423SOL     MW 5184   0.828   4.461   1.188
 1424SOL     OW 5185   0.022   4.783   0.153
 1424SOL    HW1 5186  -0.009   4.848   0.216
 1424SOL    HW2 5187  -0.029   4.705   0.172
 1424SOL     MW 5188   0.012   4.780   0.163
 1425SOL     OW 5189   1.434   3.795   0.901
 1425SOL    HW1 5190   1.522   3.804   0.938
 1425SOL    HW2 5191   1.444   3.736   0.827
 1425SOL     MW 5192   1.448   3.789   0.895
 1426SOL     OW 5193   0.916   4.460   1.442
 1426SOL    HW1 5194   0.985   4.527   1.439
 1426SOL    HW2 5195   0.849   4.498   1.498
 1426SOL     MW 5196   0.917   4.473   1.449
 1427SOL     OW 5197   1.451   4.403   0.011
 1427SOL    HW1 5198   1.379   4.379  -0.047
 1427SOL    HW2 5199   1.517   4.440  -0.047
 1427SOL     MW 5200   1.450   4.405  -0.004
 1428SOL     OW 5201   0.846   4.300   0.821
 1428SOL    HW1 5202   0.786   4.318   0.893
 1428SOL    HW2 5203   0.880   4.212   0.840
 1428SOL     MW 5204   0.842   4.290   0.834
 1429SOL     OW 5205   1.071   4.883   0.840
 1429SOL    HW1 5206   1.163   4.864   0.858
 1429SOL    HW2 5207   1.044   4.813   0.780
 1429SOL     MW 5208   1.079   4.871   0.834
 1430SOL     OW 5209   0.872   4.472   0.411
 1430SOL    HW1 5210   0.852   4.458   0.318
 1430SOL    HW2 5211   0.965   4.451   0.418
 1430SOL     MW 5212   0.882   4.467   0.400
 1431SOL     OW 5213   1.311   4.715   1.260
 1431SOL    HW1 5214   1.374   4.712   1.333
 1431SOL    HW2 5215   1.227   4.733   1.302
 1431SOL     MW 5216   1.307   4.717   1.275
 1432SOL     OW 5217   1.650   3.892   1.039
 1432SOL    HW1 5218   1.695   3.810   1.058
 1432SOL    HW2 5219   1.670   3.948   1.115
 1432SOL     MW 5220   1.660   3.888   1.051
 1433SOL     OW 5221   0.311   3.862   0.184
 1433SOL    HW1 5222   0.240   3.917   0.152
 1433SOL    HW2 5223   0.353   3.828   0.105
 1433SOL     MW 5224   0.307   3.864   0.170
 1434SOL     OW 5225   0.067   3.961   0.033
 1434SOL    HW1 5226   0.034   4.040   0.077
 1434SOL    HW2 5227   0.122   3.994  -0.038
 1434SOL     MW 5228   0.070   3.975   0.030
 1435SOL     OW 5229   1.736   4.575   2.125
 1435SOL    HW1 5230   1.777   4.517   2.190
 1435SOL    HW2 5231   1.643   4.567   2.142
 1435SOL     MW 5232   1.730   4.567   2.135
 1436SOL     OW 5233   0.530   4.758   2.354
 1436SOL    HW1 5234   0.620   4.733   2.338
 1436SOL    HW2 5235   0.526   4.851   2.331
 1436SOL     MW 5236   0.542   4.767   2.349
 1437SOL     OW 5237   0.814   4.214   2.367
 1437SOL    HW1 5238   0.789   4.302   2.395
 1437SOL    HW2 5239   0.811   4.217   2.271
 1437SOL     MW 5240   0.810   4.226   2.359
 1438SOL     OW 5241   0.256   4.242   2.295
 1438SOL    HW1 5242   0.288   4.330   2.277
 1438SOL    HW2 5243   0.244   4.240   2.390
 1438SOL     MW 5244   0.259   4.254   2.307
 1439SOL     OW 5245   0.519   4.428   2.548
 1439SOL    HW1 5246   0.504   4.348   2.599
 1439SOL    HW2 5247   0.601   4.463   2.582
 1439SOL     MW 5248   0.527   4.420   2.560
 1440SOL     OW 5249   0.661   4.254   2.925
 1440SOL    HW1 5250   0.567   4.250   2.943
 1440SOL    HW2 5251   0.691   4.163   2.934
 1440SOL     MW 5252   0.652   4.242   2.928
 1441SOL     OW 5253   0.407   4.668   2.829
 1441SOL    HW1 5254   0.362   4.675   2.745
 1441SOL    HW2 5255   0.387   4.751   2.873
 1441SOL     MW 5256   0.399   4.680   2.823
 1442SOL     OW 5257   0.930   4.685   2.549
 1442SOL    HW1 5258   0.844   4.672   2.589
 1442SOL    HW2 5259   0.983   4.612   2.581
 1442SOL     MW 5260   0.926   4.674   2.558
 1443SOL     OW 5261   1.794   4.048   2.722
 1443SOL    HW1 5262   1.731   4.028   2.791
 1443SOL    HW2 5263   1.784   3.977   2.659
 1443SOL     MW 5264   1.784   4.035   2.723
 1444SOL     OW 5265   0.418   4.020   2.234
 1444SOL    HW1 5266   0.392   3.982   2.150
 1444SOL    HW2 5267   0.355   4.090   2.250
 1444SOL     MW 5268   0.407   4.023   2.225
 1445SOL     OW 5269   1.850   4.217   2.024
 1445SOL    HW1 5270   1.759   4.219   2.052
 1445SOL    HW2 5271   1.895   4.279   2.082
 1445SOL     MW 5272   1.843   4.225   2.034
 1446SOL     OW 5273   1.395   4.455   3.446
 1446SOL    HW1 5274   1.464   4.393   3.423
 1446SOL    HW2 5275   1.320   4.429   3.393
 1446SOL     MW 5276   1.395   4.442   3.437
 1447SOL     OW 5277   1.131   4.842   3.438
 1447SOL    HW1 5278   1.116   4.935   3.423
 1447SOL    HW2 5279   1.226   4.832   3.438
 1447SOL     MW 5280   1.140   4.852   3.435
 1448SOL     OW 5281   0.927   4.266   3.639
 1448SOL    HW1 5282   1.017   4.267   3.606
 1448SOL    HW2 5283   0.886   4.191   3.597
 1448SOL     MW 5284   0.933   4.256   3.630
 1449SOL     OW 5285   1.502   4.798   2.766
 1449SOL    HW1 5286   1.505   4.732   2.697
 1449SOL    HW2 5287   1.587   4.841   2.762
 1449SOL     MW 5288   1.514   4.794   2.757
 1450SOL     OW 5289   1.122   4.401   2.335
 1450SOL    HW1 5290   1.148   4.425   2.246
 1450SOL    HW2 5291   1.104   4.308   2.331
 1450SOL     MW 5292   1.124   4.393   2.322
 1451SOL     OW 5293   0.707   4.070   3.589
 1451SOL    HW1 5294   0.717   3.996   3.529
 1451SOL    HW2 5295   0.743   4.039   3.672
 1451SOL     MW 5296   0.713   4.056   3.591
 1452SOL     OW 5297   1.827   3.799   2.553
 1452SOL    HW1 5298   1.881   3.750   2.615
 1452SOL    HW2 5299   1.770   3.733   2.514
 1452SOL     MW 5300   1.827   3.783   2.555
 1453SOL     OW 5301   0.961   4.430   1.996
 1453SOL    HW1 5302   0.963   4.377   1.917
 1453SOL    HW2 5303   1.049   4.467   2.002
 1453SOL     MW 5304   0.973   4.429   1.985
 1454SOL     OW 5305   1.575   4.356   2.332
 1454SOL    HW1 5306   1.614   4.356   2.419
 1454SOL    HW2 5307   1.516   4.432   2.332
 1454SOL     MW 5308   1.572   4.367   2.343
 1455SOL     OW 5309   0.892   4.723   3.461
 1455SOL    HW1 5310   0.869   4.703   3.551
 1455SOL    HW2 5311   0.977   4.767   3.466
 1455SOL     MW 5312   0.899   4.726   3.473
 1456SOL     OW 5313   0.972   3.860   3.221
 1456SOL    HW1 5314   0.978   3.822   3.134
 1456SOL    HW2 5315   0.961   3.954   3.206
 1456SOL     MW 5316   0.973   3.868   3.209
 1457SOL     OW 5317   1.061   4.349   3.055
 1457SOL    HW1 5318   1.136   4.378   3.002
 1457SOL    HW2 5319   0.993   4.414   3.039
 1457SOL     MW 5320   1.062   4.361   3.045
 1458SOL     OW 5321   1.058   4.055   3.438
 1458SOL    HW1 5322   1.024   4.094   3.357
 1458SOL    HW2 5323   1.036   3.963   3.431
 1458SOL     MW 5324   1.051   4.048   3.428
 1459SOL     OW 5325   1.762   4.242   2.498
 1459SOL    HW1 5326   1.851   4.211   2.515
 1459SOL    HW2 5327   1.705   4.182   2.546
 1459SOL     MW 5328   1.765   4.230   2.507
 1460SOL     OW 5329   0.188   3.956   2.527
 1460SOL    HW1 5330   0.179   3.896   2.453
 1460SOL    HW2 5331   0.121   3.927   2.590
 1460SOL     MW 5332   0.178   3.943   2.525
 1461SOL     OW 5333   1.722   4.987   3.593
 1461SOL    HW1 5334   1.772   4.913   3.625
 1461SOL    HW2 5335   1.668   5.014   3.668
 1461SOL     MW 5336   1.722   4.981   3.606
 1462SOL     OW 5337   0.119   4.404   3.060
 1462SOL    HW1 5338   0.181   4.434   3.126
 1462SOL    HW2 5339   0.053   4.473   3.054
 1462SOL     MW 5340   0.118   4.417   3.067
 1463SOL     OW 5341   0.760   3.961   1.968
 1463SOL    HW1 5342   0.708   3.881   1.956
 1463SOL    HW2 5343   0.847   3.938   1.936
 1463SOL     MW 5344   0.763   3.947   1.962
 1464SOL     OW 5345   0.266   4.832   3.019
 1464SOL    HW1 5346   0.319   4.907   3.044
 1464SOL    HW2 5347   0.185   4.870   2.985
 1464SOL     MW 5348   0.262   4.847   3.019
 1465SOL     OW 5349   0.806   4.736   3.007
 1465SOL    HW1 5350   0.834   4.645   3.019
 1465SOL    HW2 5351   0.735   4.730   2.943
 1465SOL     MW 5352   0.799   4.724   3.002
 1466SOL     OW 5353   0.121   4.601   2.425
 1466SOL    HW1 5354   0.212   4.616   2.452
 1466SOL    HW2 5355   0.124   4.522   2.371
 1466SOL     MW 5356   0.133   4.593   2.423
 1467SOL     OW 5357   0.357   4.309   3.679
 1467SOL    HW1 5358   0.304   4.389   3.686
 1467SOL    HW2 5359   0.427   4.321   3.744
 1467SOL     MW 5360   0.359   4.322   3.687
 1468SOL     OW 5361   0.743   3.859   3.386
 1468SOL    HW1 5362   0.720   3.767   3.388
 1468SOL    HW2 5363   0.829   3.861   3.343
 1468SOL     MW 5364   0.750   3.849   3.382
 1469SOL     OW 5365   1.794   4.401   2.813
 1469SOL    HW1 5366   1.883   4.431   2.795
 1469SOL    HW2 5367   1.774   4.341   2.742
 1469SOL     MW 5368   1.803   4.398   2.802
 1470SOL     OW 5369   1.133   3.958   2.127
 1470SOL    HW1 5370   1.066   3.934   2.064
 1470SOL    HW2 5371   1.198   4.007   2.076
 1470SOL     MW 5372   1.133   3.960   2.112
 1471SOL     OW 5373   0.652   4.675   2.639
 1471SOL    HW1 5374   0.563   4.666   2.672
 1471SOL    HW2 5375   0.656   4.765   2.607
 1471SOL     MW 5376   0.641   4.686   2.639
 1472SOL     OW 5377   1.451   4.258   2.634
 1472SOL    HW1 5378   1.396   4.179   2.633
 1472SOL    HW2 5379   1.433   4.299   2.718
 1472SOL     MW 5380   1.441   4.253   2.643
 1473SOL     OW 5381   0.422   3.945   3.451
 1473SOL    HW1 5382   0.343   3.963   3.503
 1473SOL    HW2 5383   0.417   4.007   3.378
 1473SOL     MW 5384   0.412   3.955   3.448
 1474SOL     OW 5385   1.070   4.462   2.591
 1474SOL    HW1 5386   1.007   4.394   2.615
 1474SOL    HW2 5387   1.090   4.443   2.499
 1474SOL     MW 5388   1.064   4.449   2.583
 1475SOL     OW 5389   0.818   4.766   2.317
 1475SOL    HW1 5390   0.820   4.740   2.224
 1475SOL    HW2 5391   0.876   4.703   2.360
 1475SOL     MW 5392   0.826   4.755   2.311
 1476SOL     OW 5393   0.133   4.944   2.584
 1476SOL    HW1 5394   0.197   4.976   2.647
 1476SOL    HW2 5395   0.182   4.880   2.532
 1476SOL     MW 5396   0.148   4.940   2.585
 1477SOL     OW 5397   1.308   4.114   1.985
 1477SOL    HW1 5398   1.281   4.180   1.921
 1477SOL    HW2 5399   1.378   4.157   2.035
 1477SOL     MW 5400   1.313   4.127   1.982
 1478SOL     OW 5401   1.481   4.670   2.127
 1478SOL    HW1 5402   1.448   4.759   2.117
 1478SOL    HW2 5403   1.446   4.641   2.212
 1478SOL     MW 5404   1.471   4.679   2.138
 1479SOL     OW 5405   1.851   4.786   3.310
 1479SOL    HW1 5406   1.766   4.799   3.269
 1479SOL    HW2 5407   1.831   4.750   3.397
 1479SOL     MW 5408   1.838   4.782   3.315
 1480SOL     OW 5409   1.128   4.681   2.162
 1480SOL    HW1 5410   1.038   4.702   2.137
 1480SOL    HW2 5411   1.155   4.754   2.218
 1480SOL     MW 5412   1.120   4.693   2.165
 1481SOL     OW 5413   1.492   4.040   3.256
 1481SOL    HW1 5414   1.439   4.042   3.336
 1481SOL    HW2 5415   1.477   3.953   3.219
 1481SOL     MW 5416   1.484   4.030   3.261
 1482SOL     OW 5417   1.828   3.964   3.129
 1482SOL    HW1 5418   1.809   4.031   3.064
 1482SOL    HW2 5419   1.885   3.902   3.084
 1482SOL     MW 5420   1.832   3.965   3.115
 1483SOL     OW 5421   0.757   3.797   2.569
 1483SOL    HW1 5422   0.686   3.858   2.551
 1483SOL    HW2 5423   0.808   3.794   2.488
 1483SOL     MW 5424   0.753   3.803   2.556
 1484SOL     OW 5425   0.717   4.454   3.699
 1484SOL    HW1 5426   0.787   4.396   3.671
 1484SOL    HW2 5427   0.660   4.399   3.754
 1484SOL     MW 5428   0.719   4.441   3.703
 1485SOL     OW 5429   1.144   3.801   3.578
 1485SOL    HW1 5430   1.139   3.708   3.559
 1485SOL    HW2 5431   1.227   3.812   3.624
 1485SOL     MW 5432   1.152   3.790   3.582
 1486SOL     OW 5433   0.518   4.321   2.032
 1486SOL    HW1 5434   0.484   4.377   2.102
 1486SOL    HW2 5435   0.589   4.271   2.072
 1486SOL     MW 5436   0.524   4.322   2.046
 1487SOL     OW 5437   1.043   4.720   3.223
 1487SOL    HW1 5438   1.086   4.755   3.301
 1487SOL    HW2 5439   1.026   4.797   3.169
 1487SOL     MW 5440   1.046   4.735   3.226
 1488SOL     OW 5441   1.574   4.207   2.096
 1488SOL    HW1 5442   1.566   4.278   2.033
 1488SOL    HW2 5443   1.592   4.251   2.179
 1488SOL     MW 5444   1.575   4.221   2.098
 1489SOL     OW 5445   0.193   4.924   3.385
 1489SOL    HW1 5446   0.221   4.877   3.463
 1489SOL    HW2 5447   0.114   4.879   3.356
 1489SOL     MW 5448   0.186   4.913   3.391
 1490SOL     OW 5449   0.356   4.647   2.565
 1490SOL    HW1 5450   0.414   4.703   2.513
 1490SOL    HW2 5451   0.400   4.562   2.567
 1490SOL     MW 5452   0.369   4.644   2.558
 1491SOL     OW 5453   1.496   3.999   2.402
 1491SOL    HW1 5454   1.418   3.949   2.427
 1491SOL    HW2 5455   1.467   4.090   2.402
 1491SOL     MW 5456   1.482   4.003   2.405
 1492SOL     OW 5457   1.082   3.961   2.561
 1492SOL    HW1 5458   1.102   4.036   2.505
 1492SOL    HW2 5459   1.062   4.000   2.646
 1492SOL     MW 5460   1.083   3.977   2.565
 1493SOL     OW 5461   1.842   4.734   3.580
 1493SOL    HW1 5462   1.755   4.714   3.616
 1493SOL    HW2 5463   1.896   4.660   3.605
 1493SOL     MW 5464   1.837   4.723   3.588
 1494SOL     OW 5465   0.018   4.373   2.284
 1494SOL    HW1 5466  -0.042   4.345   2.354
 1494SOL    HW2 5467   0.092   4.313   2.290
 1494SOL     MW 5468   0.020   4.362   2.293
 1495SOL     OW 5469   0.444   4.112   3.173
 1495SOL    HW1 5470   0.477   4.193   3.213
 1495SOL    HW2 5471   0.417   4.138   3.085
 1495SOL     MW 5472   0.443   4.126   3.167
 1496SOL     OW 5473   0.398   4.079   2.909
 1496SOL    HW1 5474   0.428   3.993   2.880
 1496SOL    HW2 5475   0.303   4.072   2.912
 1496SOL     MW 5476   0.390   4.068   2.907
 1497SOL     OW 5477   1.227   4.288   3.600
 1497SOL    HW1 5478   1.279   4.223   3.553
 1497SOL    HW2 5479   1.185   4.339   3.530
 1497SOL     MW 5480   1.228   4.285   3.583
 1498SOL     OW 5481   1.326   4.083   3.461
 1498SOL    HW1 5482   1.233   4.067   3.448
 1498SOL    HW2 5483   1.352   4.021   3.529
 1498SOL     MW 5484   1.316   4.073   3.468
 1499SOL     OW 5485   0.541   3.857   2.800
 1499SOL    HW1 5486   0.551   3.766   2.826
 1499SOL    HW2 5487   0.497   3.853   2.715
 1499SOL     MW 5488   0.537   3.845   2.792
 1500SOL     OW 5489   1.692   4.179   2.971
 1500SOL    HW1 5490   1.625   4.212   3.031
 1500SOL    HW2 5491   1.735   4.257   2.937
 1500SOL     MW 5492   1.690   4.194   2.975
 1501SOL     OW 5493   1.252   4.761   2.859
 1501SOL    HW1 5494   1.266   4.733   2.950
 1501SOL    HW2 5495   1.338   4.792   2.831
 1501SOL     MW 5496   1.265   4.762   2.868
 1502SOL     OW 5497   1.335   4.256   3.138
 1502SOL    HW1 5498   1.356   4.257   3.045
 1502SOL    HW2 5499   1.380   4.178   3.171
 1502SOL     MW 5500   1.342   4.246   3.130
 1503SOL     OW 5501   1.375   4.685   3.731
 1503SOL    HW1 5502   1.441   4.633   3.685
 1503SOL    HW2 5503   1.395   4.672   3.824
 1503SOL     MW 5504   1.386   4.676   3.738
 1504SOL     OW 5505   1.326   3.771   2.080
 1504SOL    HW1 5506   1.400   3.815   2.123
 1504SOL    HW2 5507   1.250   3.825   2.102
 1504SOL     MW 5508   1.326   3.783   2.088
 1505SOL     OW 5509   1.386   4.546   2.358
 1505SOL    HW1 5510   1.301   4.516   2.328
 1505SOL    HW2 5511   1.378   4.553   2.453
 1505SOL     MW 5512   1.374   4.544   2.367
 1506SOL     OW 5513   0.746   3.989   2.912
 1506SOL    HW1 5514   0.719   3.991   3.003
 1506SOL    HW2 5515   0.676   3.941   2.867
 1506SOL     MW 5516   0.734   3.985   2.919
 1507SOL     OW 5517   0.576   4.797   3.423
 1507SOL    HW1 5518   0.613   4.802   3.335
 1507SOL    HW2 5519   0.615   4.870   3.470
 1507SOL     MW 5520   0.586   4.807   3.418
 1508SOL     OW 5521   0.756   4.840   3.235
 1508SOL    HW1 5522   0.815   4.786   3.288
 1508SOL    HW2 5523   0.771   4.812   3.145
 1508SOL     MW 5524   0.766   4.829   3.231
 1509SOL     OW 5525   0.759   4.212   2.084
 1509SOL    HW1 5526   0.832   4.261   2.047
 1509SOL    HW2 5527   0.775   4.121   2.058
 1509SOL     MW 5528   0.771   4.207   2.077
 1510SOL     OW 5529   0.234   4.721   2.182
 1510SOL    HW1 5530   0.171   4.737   2.111
 1510SOL    HW2 5531   0.181   4.684   2.253
 1510SOL     MW 5532   0.219   4.718   2.182
 1511SOL     OW 5533   0.590   5.075   2.041
 1511SOL    HW1 5534   0.605   5.051   2.133
 1511SOL    HW2 5535   0.498   5.053   2.025
 1511SOL     MW 5536   0.580   5.068   2.051
 1512SOL     OW 5537   0.094   5.217   3.256
 1512SOL    HW1 5538   0.084   5.175   3.342
 1512SOL    HW2 5539   0.015   5.270   3.246
 1512SOL     MW 5540   0.083   5.218   3.267
 1513SOL     OW 5541   0.998   4.081   2.826
 1513SOL    HW1 5542   0.928   4.033   2.871
 1513SOL    HW2 5543   1.030   4.144   2.890
 1513SOL     MW 5544   0.993   4.083   2.840
 1514SOL     OW 5545   0.649   4.517   3.446
 1514SOL    HW1 5546   0.642   4.612   3.434
 1514SOL    HW2 5547   0.658   4.506   3.541
 1514SOL     MW 5548   0.650   4.529   3.456
 1515SOL     OW 5549   1.454   3.795   3.171
 1515SOL    HW1 5550   1.525   3.741   3.135
 1515SOL    HW2 5551   1.453   3.774   3.264
 1515SOL     MW 5552   1.463   3.786   3.179
 1516SOL     OW 5553   0.781   5.280   2.715
 1516SOL    HW1 5554   0.709   5.217   2.728
 1516SOL    HW2 5555   0.742   5.365   2.733
 1516SOL     MW 5556   0.765   5.283   2.718
 1517SOL     OW 5557   1.101   4.128   2.363
 1517SOL    HW1 5558   1.123   4.065   2.295
 1517SOL    HW2 5559   1.006   4.120   2.374
 1517SOL     MW 5560   1.091   4.119   2.355
 1518SOL     OW 5561   0.186   3.818   2.295
 1518SOL    HW1 5562   0.257   3.839   2.234
 1518SOL    HW2 5563   0.140   3.746   2.253
 1518SOL     MW 5564   0.190   3.812   2.281
 1519SOL     OW 5565   0.017   4.285   3.438
 1519SOL    HW1 5566   0.081   4.351   3.413
 1519SOL    HW2 5567  -0.064   4.312   3.395
 1519SOL     MW 5568   0.015   4.297   3.430
 1520SOL     OW 5569   1.311   4.869   2.325
 1520SOL    HW1 5570   1.283   4.955   2.358
 1520SOL    HW2 5571   1.339   4.885   2.235
 1520SOL     MW 5572   1.311   4.883   2.317
 1521SOL     OW 5573   0.973   3.789   2.378
 1521SOL    HW1 5574   1.010   3.848   2.443
 1521SOL    HW2 5575   0.950   3.845   2.304
 1521SOL     MW 5576   0.974   3.804   2.377
 1522SOL     OW 5577   1.738   4.602   2.501
 1522SOL    HW1 5578   1.832   4.591   2.489
 1522SOL    HW2 5579   1.714   4.674   2.442
 1522SOL     MW 5580   1.748   4.610   2.492
 1523SOL     OW 5581   0.187   4.526   3.646
 1523SOL    HW1 5582   0.113   4.470   3.672
 1523SOL    HW2 5583   0.182   4.529   3.551
 1523SOL     MW 5584   0.176   4.519   3.636
 1524SOL     OW 5585   0.353   3.813   3.096
 1524SOL    HW1 5586   0.396   3.897   3.116
 1524SOL    HW2 5587   0.426   3.751   3.089
 1524SOL     MW 5588   0.368   3.816   3.097
 1525SOL     OW 5589   0.394   4.480   2.274
 1525SOL    HW1 5590   0.394   4.575   2.259
 1525SOL    HW2 5591   0.471   4.464   2.328
 1525SOL     MW 5592   0.404   4.491   2.279
 1526SOL     OW 5593   1.170   4.339   3.338
 1526SOL    HW1 5594   1.206   4.312   3.254
 1526SOL    HW2 5595   1.083   4.373   3.317
 1526SOL     MW 5596   1.164   4.340   3.325
 1527SOL     OW 5597   0.153   4.211   2.563
 1527SOL    HW1 5598   0.215   4.218   2.636
 1527SOL    HW2 5599   0.153   4.118   2.540
 1527SOL     MW 5600   0.161   4.200   2.570
 1528SOL     OW 5601   0.835   4.472   3.047
 1528SOL    HW1 5602   0.793   4.390   3.023
 1528SOL    HW2 5603   0.836   4.471   3.143
 1528SOL     MW 5604   0.828   4.461   3.056
 1529SOL     OW 5605   0.639   3.942   3.152
 1529SOL    HW1 5606   0.570   4.005   3.173
 1529SOL    HW2 5607   0.666   3.906   3.237
 1529SOL     MW 5608   0.633   3.945   3.165
 1530SOL     OW 5609   0.022   4.783   2.021
 1530SOL    HW1 5610  -0.009   4.848   2.084
 1530SOL    HW2 5611  -0.029   4.705   2.040
 1530SOL     MW 5612   0.012   4.780   2.031
 1531SOL     OW 5613   1.466   4.534   2.613
 1531SOL    HW1 5614   1.546   4.549   2.562
 1531SOL    HW2 5615   1.459   4.439   2.619
 1531SOL     MW 5616   1.475   4.523   2.608
 1532SOL     OW 5617   0.916   4.460   3.310
 1532SOL    HW1 5618   0.985   4.527   3.307
 1532SOL    HW2 5619   0.849   4.498   3.366
 1532SOL     MW 5620   0.917   4.473   3.317
 1533SOL     OW 5621   0.334   4.760   3.558
 1533SOL    HW1 5622   0.288   4.676   3.560
 1533SOL    HW2 5623   0.391   4.754   3.482
 1533SOL     MW 5624   0.336   4.748   3.550
 1534SOL     OW 5625   0.846   4.300   2.689
 1534SOL    HW1 5626   0.786   4.318   2.761
 1534SOL    HW2 5627   0.880   4.212   2.708
 1534SOL     MW 5628   0.842   4.290   2.702
 1535SOL     OW 5629   1.071   4.883   2.708
 1535SOL    HW1 5630   1.163   4.864   2.726
 1535SOL    HW2 5631   1.044   4.813   2.648
 1535SOL     MW 5632   1.079   4.871   2.702
 1536SOL     OW 5633   0.864   4.703   2.063
 1536SOL    HW1 5634   0.850   4.615   2.028
 1536SOL    HW2 5635   0.815   4.760   2.004
 1536SOL     MW 5636   0.856   4.698   2.051
 1537SOL     OW 5637   0.277   4.427   2.842
 1537SOL    HW1 5638   0.227   4.426   2.923
 1537SOL    HW2 5639   0.297   4.519   2.826
 1537SOL     MW 5640   0.273   4.439   2.850
 1538SOL     OW 5641   1.583   3.909   2.165
 1538SOL    HW1 5642   1.576   3.913   2.260
 1538SOL    HW2 5643   1.595   4.000   2.138
 1538SOL     MW 5644   1.584   3.922   2.173
 1539SOL     OW 5645   0.872   4.472   2.279
 1539SOL    HW1 5646   0.852   4.458   2.186
 1539SOL    HW2 5647   0.965   4.451   2.286
 1539SOL     MW 5648   0.882   4.467   2.268
 1540SOL     OW 5649   0.199   4.095   3.583
 1540SOL    HW1 5650   0.156   4.154   3.520
 1540SOL    HW2 5651   0.267   4.150   3.623
 1540SOL     MW 5652   0.203   4.110   3.580
 1541SOL     OW 5653   1.311   4.715   3.128
 1541SOL    HW1 5654   1.374   4.712   3.201
 1541SOL    HW2 5655   1.227   4.733   3.170
 1541SOL     MW 5656   1.307   4.717   3.143
 1542SOL     OW 5657   0.098   3.735   3.006
 1542SOL    HW1 5658   0.089   3.736   2.911
 1542SOL    HW2 5659   0.192   3.747   3.021
 1542SOL     MW 5660   0.110   3.738   2.997
 1543SOL     OW 5661   0.311   3.862   2.052
 1543SOL    HW1 5662   0.240   3.917   2.020
 1543SOL    HW2 5663   0.353   3.828   1.973
 1543SOL     MW 5664   0.307   3.864   2.038
 1544SOL     OW 5665   0.067   3.961   1.901
 1544SOL    HW1 5666   0.034   4.040   1.945
 1544SOL    HW2 5667   0.122   3.994   1.830
 1544SOL     MW 5668   0.070   3.975   1.898
 1545SOL     OW 5669   1.736   4.575   3.993
 1545SOL    HW1 5670   1.777   4.517   4.058
 1545SOL    HW2 5671   1.643   4.567   4.010
 1545SOL     MW 5672   1.730   4.567   4.003
 1546SOL     OW 5673   0.814   4.214   4.235
 1546SOL    HW1 5674   0.789   4.302   4.263
 1546SOL    HW2 5675   0.811   4.217   4.139
 1546SOL     MW 5676   0.810   4.226   4.227
 1547SOL     OW 5677   0.256   4.242   4.163
 1547SOL    HW1 5678   0.288   4.330   4.145
 1547SOL    HW2 5679   0.244   4.240   4.258
 1547SOL     MW 5680   0.259   4.254   4.175
 1548SOL     OW 5681   0.655   3.997   4.250
 1548SOL    HW1 5682   0.713   4.073   4.252
 1548SOL    HW2 5683   0.590   4.018   4.183
 1548SOL     MW 5684   0.654   4.009   4.241
 1549SOL     OW 5685   0.519   4.428   4.416
 1549SOL    HW1 5686   0.504   4.348   4.467
 1549SOL    HW2 5687   0.601   4.463   4.450
 1549SOL     MW 5688   0.527   4.420   4.428
 1550SOL     OW 5689   0.661   4.254   4.793
 1550SOL    HW1 5690   0.567   4.250   4.811
 1550SOL    HW2 5691   0.691   4.163   4.802
 1550SOL     MW 5692   0.652   4.242   4.796
 1551SOL     OW 5693   0.407   4.668   4.697
 1551SOL    HW1 5694   0.362   4.675   4.613
 1551SOL    HW2 5695   0.387   4.751   4.741
 1551SOL     MW 5696   0.399   4.680   4.691
 1552SOL     OW 5697   0.930   4.685   4.417
 1552SOL    HW1 5698   0.844   4.672   4.457
 1552SOL    HW2 5699   0.983   4.612   4.449
 1552SOL     MW 5700   0.926   4.674   4.426
 1553SOL     OW 5701   1.794   4.048   4.590
 1553SOL    HW1 5702   1.731   4.028   4.659
 1553SOL    HW2 5703   1.784   3.977   4.527
 1553SOL     MW 5704   1.784   4.035   4.591
 1554SOL     OW 5705   1.850   4.217   3.892
 1554SOL    HW1 5706   1.759   4.219   3.920
 1554SOL    HW2 5707   1.895   4.279   3.950
 1554SOL     MW 5708   1.843   4.225   3.902
 1555SOL     OW 5709   1.595   4.820   4.242
 1555SOL    HW1 5710   1.505   4.820   4.277
 1555SOL    HW2 5711   1.588   4.866   4.159
 1555SOL     MW 5712   1.582   4.826   4.236
 1556SOL     OW 5713   1.122   4.401   4.203
 1556SOL    HW1 5714   1.148   4.425   4.114
 1556SOL    HW2 5715   1.104   4.308   4.199
 1556SOL     MW 5716   1.124   4.393   4.190
 1557SOL     OW 5717   1.787   5.021   4.054
 1557SOL    HW1 5718   1.743   5.062   4.129
 1557SOL    HW2 5719   1.844   5.089   4.019
 1557SOL     MW 5720   1.789   5.035   4.059
 1558SOL     OW 5721   1.827   3.799   4.421
 1558SOL    HW1 5722   1.881   3.750   4.483
 1558SOL    HW2 5723   1.770   3.733   4.382
 1558SOL     MW 5724   1.827   3.783   4.423
 1559SOL     OW 5725   0.946   3.752   4.834
 1559SOL    HW1 5726   0.905   3.830   4.796
 1559SOL    HW2 5727   1.040   3.770   4.829
 1559SOL     MW 5728   0.952   3.764   4.829
 1560SOL     OW 5729   1.575   4.356   4.200
 1560SOL    HW1 5730   1.614   4.356   4.287
 1560SOL    HW2 5731   1.516   4.432   4.200
 1560SOL     MW 5732   1.572   4.367   4.211
 1561SOL     OW 5733   1.061   4.349   4.923
 1561SOL    HW1 5734   1.136   4.378   4.870
 1561SOL    HW2 5735   0.993   4.414   4.907
 1561SOL     MW 5736   1.062   4.361   4.913
 1562SOL     OW 5737   1.762   4.242   4.366
 1562SOL    HW1 5738   1.851   4.211   4.383
 1562SOL    HW2 5739   1.705   4.182   4.414
 1562SOL     MW 5740   1.765   4.230   4.375
 1563SOL     OW 5741   0.188   3.956   4.395
 1563SOL    HW1 5742   0.179   3.896   4.321
 1563SOL    HW2 5743   0.121   3.927   4.458
 1563SOL     MW 5744   0.178   3.943   4.393
 1564SOL     OW 5745   0.135   4.129   4.758
 1564SOL    HW1 5746   0.107   4.220   4.767
 1564SOL    HW2 5747   0.072   4.090   4.697
 1564SOL     MW 5748   0.122   4.135   4.752
 1565SOL     OW 5749   1.856   4.622   4.963
 1565SOL    HW1 5750   1.872   4.660   4.876
 1565SOL    HW2 5751   1.890   4.688   5.024
 1565SOL     MW 5752   1.863   4.635   4.959
 1566SOL     OW 5753   0.119   4.404   4.928
 1566SOL    HW1 5754   0.181   4.434   4.994
 1566SOL    HW2 5755   0.053   4.473   4.922
 1566SOL     MW 5756   0.118   4.417   4.935
 1567SOL     OW 5757   0.760   3.961   3.836
 1567SOL    HW1 5758   0.708   3.881   3.824
 1567SOL    HW2 5759   0.847   3.938   3.804
 1567SOL     MW 5760   0.763   3.947   3.830
 1568SOL     OW 5761   0.266   4.832   4.887
 1568SOL    HW1 5762   0.319   4.907   4.912
 1568SOL    HW2 5763   0.185   4.870   4.853
 1568SOL     MW 5764   0.262   4.847   4.887
 1569SOL     OW 5765   0.121   4.601   4.293
 1569SOL    HW1 5766   0.212   4.616   4.320
 1569SOL    HW2 5767   0.124   4.522   4.239
 1569SOL     MW 5768   0.133   4.593   4.291
 1570SOL     OW 5769   0.743   3.859   5.254
 1570SOL    HW1 5770   0.720   3.767   5.256
 1570SOL    HW2 5771   0.829   3.861   5.211
 1570SOL     MW 5772   0.750   3.849   5.250
 1571SOL     OW 5773   1.794   4.401   4.681
 1571SOL    HW1 5774   1.883   4.431   4.663
 1571SOL    HW2 5775   1.774   4.341   4.610
 1571SOL     MW 5776   1.803   4.398   4.670
 1572SOL     OW 5777   1.200   4.480   4.703
 1572SOL    HW1 5778   1.213   4.574   4.713
 1572SOL    HW2 5779   1.161   4.470   4.617
 1572SOL     MW 5780   1.196   4.491   4.693
 1573SOL     OW 5781   1.451   4.258   4.502
 1573SOL    HW1 5782   1.396   4.179   4.501
 1573SOL    HW2 5783   1.433   4.299   4.586
 1573SOL     MW 5784   1.441   4.253   4.511
 1574SOL     OW 5785   1.070   4.462   4.459
 1574SOL    HW1 5786   1.007   4.394   4.483
 1574SOL    HW2 5787   1.090   4.443   4.367
 1574SOL     MW 5788   1.064   4.449   4.451
 1575SOL     OW 5789   1.328   4.010   4.518
 1575SOL    HW1 5790   1.356   3.942   4.579
 1575SOL    HW2 5791   1.242   3.981   4.488
 1575SOL     MW 5792   1.321   3.997   4.522
 1576SOL     OW 5793   0.133   4.944   4.452
 1576SOL    HW1 5794   0.197   4.976   4.515
 1576SOL    HW2 5795   0.182   4.880   4.400
 1576SOL     MW 5796   0.148   4.940   4.453
 1577SOL     OW 5797   0.976   3.819   3.790
 1577SOL    HW1 5798   1.032   3.811   3.712
 1577SOL    HW2 5799   0.953   3.729   3.812
 1577SOL     MW 5800   0.981   3.806   3.783
 1578SOL     OW 5801   1.481   4.670   3.995
 1578SOL    HW1 5802   1.448   4.759   3.985
 1578SOL    HW2 5803   1.446   4.641   4.080
 1578SOL     MW 5804   1.471   4.679   4.006
 1579SOL     OW 5805   0.475   4.708   3.787
 1579SOL    HW1 5806   0.398   4.721   3.843
 1579SOL    HW2 5807   0.439   4.672   3.706
 1579SOL     MW 5808   0.461   4.704   3.784
 1580SOL     OW 5809   1.128   4.681   4.030
 1580SOL    HW1 5810   1.038   4.702   4.005
 1580SOL    HW2 5811   1.155   4.754   4.086
 1580SOL     MW 5812   1.120   4.693   4.033
 1581SOL     OW 5813   0.757   3.797   4.437
 1581SOL    HW1 5814   0.686   3.858   4.419
 1581SOL    HW2 5815   0.808   3.794   4.356
 1581SOL     MW 5816   0.753   3.803   4.424
 1582SOL     OW 5817   0.518   4.321   3.900
 1582SOL    HW1 5818   0.484   4.377   3.970
 1582SOL    HW2 5819   0.589   4.271   3.940
 1582SOL     MW 5820   0.524   4.322   3.914
 1583SOL     OW 5821   1.574   4.207   3.964
 1583SOL    HW1 5822   1.566   4.278   3.901
 1583SOL    HW2 5823   1.592   4.251   4.047
 1583SOL     MW 5824   1.575   4.221   3.966
 1584SOL     OW 5825   0.434   3.862   4.393
 1584SOL    HW1 5826   0.484   3.905   4.324
 1584SOL    HW2 5827   0.349   3.906   4.393
 1584SOL     MW 5828   0.431   3.875   4.384
 1585SOL     OW 5829   1.243   4.469   3.939
 1585SOL    HW1 5830   1.290   4.487   3.858
 1585SOL    HW2 5831   1.209   4.553   3.967
 1585SOL     MW 5832   1.245   4.483   3.932
 1586SOL     OW 5833   0.356   4.647   4.433
 1586SOL    HW1 5834   0.414   4.703   4.381
 1586SOL    HW2 5835   0.400   4.562   4.435
 1586SOL     MW 5836   0.369   4.644   4.426
 1587SOL     OW 5837   1.496   3.999   4.270
 1587SOL    HW1 5838   1.418   3.949   4.295
 1587SOL    HW2 5839   1.467   4.090   4.270
 1587SOL     MW 5840   1.482   4.003   4.273
 1588SOL     OW 5841   1.082   3.961   4.429
 1588SOL    HW1 5842   1.102   4.036   4.373
 1588SOL    HW2 5843   1.062   4.000   4.514
 1588SOL     MW 5844   1.083   3.977   4.433
 1589SOL     OW 5845   0.018   4.373   4.152
 1589SOL    HW1 5846  -0.042   4.345   4.222
 1589SOL    HW2 5847   0.092   4.313   4.158
 1589SOL     MW 5848   0.020   4.362   4.161
 1590SOL     OW 5849   0.444   4.112   5.041
 1590SOL    HW1 5850   0.477   4.193   5.081
 1590SOL    HW2 5851   0.417   4.138   4.953
 1590SOL     MW 5852   0.443   4.126   5.035
 1591SOL     OW 5853   0.398   4.079   4.777
 1591SOL    HW1 5854   0.428   3.993   4.748
 1591SOL    HW2 5855   0.303   4.072   4.780
 1591SOL     MW 5856   0.390   4.068   4.775
 1592SOL     OW 5857   1.870   4.899   4.809
 1592SOL    HW1 5858   1.863   4.839   4.734
 1592SOL    HW2 5859   1.796   4.959   4.798
 1592SOL     MW 5860   1.860   4.899   4.798
 1593SOL     OW 5861   1.252   4.761   4.727
 1593SOL    HW1 5862   1.266   4.733   4.818
 1593SOL    HW2 5863   1.338   4.792   4.699
 1593SOL     MW 5864   1.265   4.762   4.736
 1594SOL     OW 5865   1.386   4.546   4.226
 1594SOL    HW1 5866   1.301   4.516   4.196
 1594SOL    HW2 5867   1.378   4.553   4.321
 1594SOL     MW 5868   1.374   4.544   4.235
 1595SOL     OW 5869   0.576   4.797   5.291
 1595SOL    HW1 5870   0.613   4.802   5.203
 1595SOL    HW2 5871   0.615   4.870   5.338
 1595SOL     MW 5872   0.586   4.807   5.286
 1596SOL     OW 5873   1.227   3.808   4.866
 1596SOL    HW1 5874   1.282   3.817   4.788
 1596SOL    HW2 5875   1.282   3.842   4.937
 1596SOL     MW 5876   1.241   3.813   4.865
 1597SOL     OW 5877   0.234   4.721   4.050
 1597SOL    HW1 5878   0.171   4.737   3.979
 1597SOL    HW2 5879   0.181   4.684   4.121
 1597SOL     MW 5880   0.219   4.718   4.050
 1598SOL     OW 5881   0.590   5.075   3.909
 1598SOL    HW1 5882   0.605   5.051   4.001
 1598SOL    HW2 5883   0.498   5.053   3.893
 1598SOL     MW 5884   0.580   5.068   3.919
 1599SOL     OW 5885   0.998   4.081   4.694
 1599SOL    HW1 5886   0.928   4.033   4.739
 1599SOL    HW2 5887   1.030   4.144   4.758
 1599SOL     MW 5888   0.993   4.083   4.708
 1600SOL     OW 5889   0.465   4.187   4.507
 1600SOL    HW1 5890   0.536   4.135   4.470
 1600SOL    HW2 5891   0.451   4.152   4.594
 1600SOL     MW 5892   0.473   4.176   4.514
 1601SOL     OW 5893   0.781   5.280   4.583
 1601SOL    HW1 5894   0.709   5.217   4.596
 1601SOL    HW2 5895   0.742   5.365   4.601
 1601SOL     MW 5896   0.765   5.283   4.586
 1602SOL     OW 5897   1.101   4.128   4.231
 1602SOL    HW1 5898   1.123   4.065   4.163
 1602SOL    HW2 5899   1.006   4.120   4.242
 1602SOL     MW 5900   1.091   4.119   4.223
 1603SOL     OW 5901   0.186   3.818   4.163
 1603SOL    HW1 5902   0.257   3.839   4.102
 1603SOL    HW2 5903   0.140   3.746   4.121
 1603SOL     MW 5904   0.190   3.812   4.149
 1604SOL     OW 5905   1.311   4.869   4.193
 1604SOL    HW1 5906   1.283   4.955   4.226
 1604SOL    HW2 5907   1.339   4.885   4.103
 1604SOL     MW 5908   1.311   4.883   4.185
 1605SOL     OW 5909   0.973   3.789   4.246
 1605SOL    HW1 5910   1.010   3.848   4.311
 1605SOL    HW2 5911   0.950   3.845   4.172
 1605SOL     MW 5912   0.974   3.804   4.245
 1606SOL     OW 5913   1.826   4.671   4.668
 1606SOL    HW1 5914   1.817   4.703   4.579
 1606SOL    HW2 5915   1.779   4.587   4.668
 1606SOL     MW 5916   1.819   4.664   4.658
 1607SOL     OW 5917   0.394   4.480   4.142
 1607SOL    HW1 5918   0.394   4.575   4.127
 1607SOL    HW2 5919   0.471   4.464   4.196
 1607SOL     MW 5920   0.404   4.491   4.147
 1608SOL     OW 5921   0.153   4.211   4.431
 1608SOL    HW1 5922   0.215   4.218   4.504
 1608SOL    HW2 5923   0.153   4.118   4.408
 1608SOL     MW 5924   0.161   4.200   4.438
 1609SOL     OW 5925   0.835   4.472   4.915
 1609SOL    HW1 5926   0.793   4.390   4.891
 1609SOL    HW2 5927   0.836   4.471   5.011
 1609SOL     MW 5928   0.828   4.461   4.924
 1610SOL     OW 5929   0.022   4.783   3.889
 1610SOL    HW1 5930  -0.009   4.848   3.952
 1610SOL    HW2 5931  -0.029   4.705   3.908
 1610SOL     MW 5932   0.012   4.780   3.899
 1611SOL     OW 5933   1.434   3.795   4.637
 1611SOL    HW1 5934   1.522   3.804   4.674
 1611SOL    HW2 5935   1.444   3.736   4.563
 1611SOL     MW 5936   1.448   3.789   4.631
 1612SOL     OW 5937   1.466   4.534   4.481
 1612SOL    HW1 5938   1.546   4.549   4.430
 1612SOL    HW2 5939   1.459   4.439   4.487
 1612SOL     MW 5940   1.475   4.523   4.476
 1613SOL     OW 5941   0.846   4.300   4.557
 1613SOL    HW1 5942   0.786   4.318   4.629
 1613SOL    HW2 5943   0.880   4.212   4.576
 1613SOL     MW 5944   0.842   4.290   4.570
 1614SOL     OW 5945   1.071   4.883   4.576
 1614SOL    HW1 5946   1.163   4.864   4.594
 1614SOL    HW2 5947   1.044   4.813   4.516
 1614SOL     MW 5948   1.079   4.871   4.570
 1615SOL     OW 5949   0.864   4.703   3.931
 1615SOL    HW1 5950   0.850   4.615   3.896
 1615SOL    HW2 5951   0.815   4.760   3.872
 1615SOL     MW 5952   0.856   4.698   3.919
 1616SOL     OW 5953   0.277   4.427   4.710
 1616SOL    HW1 5954   0.227   4.426   4.791
 1616SOL    HW2 5955   0.297   4.519   4.694
 1616SOL     MW 5956   0.273   4.439   4.718
 1617SOL     OW 5957   1.583   3.909   4.033
 1617SOL    HW1 5958   1.576   3.913   4.128
 1617SOL    HW2 5959   1.595   4.000   4.006
 1617SOL     MW 5960   1.584   3.922   4.041
 1618SOL     OW 5961   0.872   4.472   4.147
 1618SOL    HW1 5962   0.852   4.458   4.054
 1618SOL    HW2 5963   0.965   4.451   4.154
 1618SOL     MW 5964   0.882   4.467   4.136
 1619SOL     OW 5965   1.311   4.715   4.996
 1619SOL    HW1 5966   1.374   4.712   5.069
 1619SOL    HW2 5967   1.227   4.733   5.038
 1619SOL     MW 5968   1.307   4.717   5.011
 1620SOL     OW 5969   1.650   3.892   4.775
 1620SOL    HW1 5970   1.695   3.810   4.794
 1620SOL    HW2 5971   1.670   3.948   4.851
 1620SOL     MW 5972   1.660   3.888   4.787
 1621SOL     OW 5973   0.311   3.862   3.920
 1621SOL    HW1 5974   0.240   3.917   3.888
 1621SOL    HW2 5975   0.353   3.828   3.841
 1621SOL     MW 5976   0.307   3.864   3.906
 1622SOL     OW 5977   1.435   4.359   4.756
 1622SOL    HW1 5978   1.358   4.405   4.722
 1622SOL    HW2 5979   1.492   4.428   4.790
 1622SOL     MW 5980   1.432   4.374   4.756
 1623SOL     OW 5981   3.604   0.839   0.257
 1623SOL    HW1 5982   3.645   0.781   0.322
 1623SOL    HW2 5983   3.511   0.831   0.274
 1623SOL     MW 5984   3.598   0.831   0.267
 1624SOL     OW 5985   3.470   0.771   1.252
 1624SOL    HW1 5986   3.425   0.838   1.303
 1624SOL    HW2 5987   3.558   0.807   1.238
 1624SOL     MW 5988   3.476   0.784   1.256
 1625SOL     OW 5989   3.514   1.725   0.628
 1625SOL    HW1 5990   3.526   1.671   0.706
 1625SOL    HW2 5991   3.551   1.673   0.557
 1625SOL     MW 5992   3.520   1.710   0.629
 1626SOL     OW 5993   2.893   1.610   1.629
 1626SOL    HW1 5994   2.934   1.646   1.550
 1626SOL    HW2 5995   2.928   1.521   1.636
 1626SOL     MW 5996   2.904   1.603   1.620
 1627SOL     OW 5997   3.450   1.165   1.233
 1627SOL    HW1 5998   3.371   1.130   1.191
 1627SOL    HW2 5999   3.477   1.237   1.177
 1627SOL     MW 6000   3.443   1.170   1.220
 1628SOL     OW 6001   2.682   0.478   0.499
 1628SOL    HW1 6002   2.657   0.566   0.527
 1628SOL    HW2 6003   2.679   0.481   0.403
 1628SOL     MW 6004   2.678   0.490   0.491
 1629SOL     OW 6005   2.124   0.506   0.427
 1629SOL    HW1 6006   2.156   0.594   0.409
 1629SOL    HW2 6007   2.112   0.504   0.522
 1629SOL     MW 6008   2.127   0.518   0.439
 1630SOL     OW 6009   2.202   0.919   1.328
 1630SOL    HW1 6010   2.265   0.866   1.279
 1630SOL    HW2 6011   2.183   0.993   1.271
 1630SOL     MW 6012   2.208   0.921   1.315
 1631SOL     OW 6013   2.523   0.261   0.514
 1631SOL    HW1 6014   2.581   0.337   0.516
 1631SOL    HW2 6015   2.458   0.282   0.447
 1631SOL     MW 6016   2.522   0.273   0.505
 1632SOL     OW 6017   2.610   1.188   0.689
 1632SOL    HW1 6018   2.690   1.191   0.741
 1632SOL    HW2 6019   2.638   1.155   0.603
 1632SOL     MW 6020   2.624   1.184   0.684
 1633SOL     OW 6021   2.635   1.529   1.592
 1633SOL    HW1 6022   2.719   1.555   1.631
 1633SOL    HW2 6023   2.659   1.473   1.518
 1633SOL     MW 6024   2.649   1.525   1.587
 1634SOL     OW 6025   2.724   1.378   1.365
 1634SOL    HW1 6026   2.688   1.444   1.305
 1634SOL    HW2 6027   2.652   1.316   1.378
 1634SOL     MW 6028   2.710   1.378   1.359
 1635SOL     OW 6029   2.529   0.518   1.057
 1635SOL    HW1 6030   2.435   0.514   1.075
 1635SOL    HW2 6031   2.559   0.427   1.066
 1635SOL     MW 6032   2.520   0.506   1.060
 1636SOL     OW 6033   2.275   0.932   0.961
 1636SOL    HW1 6034   2.230   0.939   0.877
 1636SOL    HW2 6035   2.255   1.015   1.005
 1636SOL     MW 6036   2.267   0.944   0.955
 1637SOL     OW 6037   2.236   1.305   0.871
 1637SOL    HW1 6038   2.212   1.358   0.947
 1637SOL    HW2 6039   2.292   1.363   0.819
 1637SOL     MW 6040   2.240   1.320   0.874
 1638SOL     OW 6041   2.798   0.949   0.681
 1638SOL    HW1 6042   2.712   0.936   0.721
 1638SOL    HW2 6043   2.851   0.876   0.713
 1638SOL     MW 6044   2.794   0.938   0.690
 1639SOL     OW 6045   2.206   1.601   1.466
 1639SOL    HW1 6046   2.114   1.577   1.451
 1639SOL    HW2 6047   2.250   1.518   1.483
 1639SOL     MW 6048   2.200   1.586   1.465
 1640SOL     OW 6049   2.789   1.311   0.398
 1640SOL    HW1 6050   2.766   1.373   0.466
 1640SOL    HW2 6051   2.746   1.229   0.424
 1640SOL     MW 6052   2.781   1.307   0.409
 1641SOL     OW 6053   2.286   0.284   0.366
 1641SOL    HW1 6054   2.260   0.246   0.282
 1641SOL    HW2 6055   2.223   0.354   0.382
 1641SOL     MW 6056   2.275   0.287   0.357
 1642SOL     OW 6057   2.783   1.708   0.181
 1642SOL    HW1 6058   2.738   1.724   0.264
 1642SOL    HW2 6059   2.714   1.673   0.123
 1642SOL     MW 6060   2.769   1.705   0.183
 1643SOL     OW 6061   3.718   0.481   0.156
 1643SOL    HW1 6062   3.627   0.483   0.184
 1643SOL    HW2 6063   3.763   0.543   0.214
 1643SOL     MW 6064   3.711   0.489   0.166
 1644SOL     OW 6065   3.263   0.719   1.578
 1644SOL    HW1 6066   3.332   0.657   1.555
 1644SOL    HW2 6067   3.188   0.693   1.525
 1644SOL     MW 6068   3.263   0.706   1.569
 1645SOL     OW 6069   2.999   1.106   1.570
 1645SOL    HW1 6070   2.984   1.199   1.555
 1645SOL    HW2 6071   3.094   1.096   1.570
 1645SOL     MW 6072   3.008   1.116   1.567
 1646SOL     OW 6073   2.795   0.530   1.771
 1646SOL    HW1 6074   2.885   0.531   1.738
 1646SOL    HW2 6075   2.754   0.455   1.729
 1646SOL     MW 6076   2.801   0.520   1.762
 1647SOL     OW 6077   3.655   1.285   0.318
 1647SOL    HW1 6078   3.611   1.326   0.393
 1647SOL    HW2 6079   3.712   1.353   0.283
 1647SOL     MW 6080   3.657   1.299   0.323
 1648SOL     OW 6081   2.575   0.334   1.721
 1648SOL    HW1 6082   2.585   0.260   1.661
 1648SOL    HW2 6083   2.611   0.303   1.804
 1648SOL     MW 6084   2.581   0.320   1.723
 1649SOL     OW 6085   3.695   0.063   0.685
 1649SOL    HW1 6086   3.749   0.014   0.747
 1649SOL    HW2 6087   3.638  -0.003   0.646
 1649SOL     MW 6088   3.695   0.047   0.687
 1650SOL     OW 6089   2.027   1.761   0.213
 1650SOL    HW1 6090   2.056   1.851   0.205
 1650SOL    HW2 6091   1.977   1.744   0.134
 1650SOL     MW 6092   2.025   1.769   0.202
 1651SOL     OW 6093   2.829   0.694   0.128
 1651SOL    HW1 6094   2.831   0.641   0.049
 1651SOL    HW2 6095   2.917   0.731   0.134
 1651SOL     MW 6096   2.841   0.693   0.117
 1652SOL     OW 6097   3.443   0.620   0.464
 1652SOL    HW1 6098   3.482   0.620   0.551
 1652SOL    HW2 6099   3.384   0.696   0.464
 1652SOL     MW 6100   3.440   0.631   0.475
 1653SOL     OW 6101   2.760   0.987   1.593
 1653SOL    HW1 6102   2.737   0.967   1.683
 1653SOL    HW2 6103   2.845   1.031   1.598
 1653SOL     MW 6104   2.767   0.990   1.605
 1654SOL     OW 6105   2.929   0.613   1.187
 1654SOL    HW1 6106   3.004   0.642   1.134
 1654SOL    HW2 6107   2.861   0.678   1.171
 1654SOL     MW 6108   2.930   0.625   1.177
 1655SOL     OW 6109   3.479   0.581   1.464
 1655SOL    HW1 6110   3.460   0.490   1.443
 1655SOL    HW2 6111   3.457   0.630   1.385
 1655SOL     MW 6112   3.474   0.574   1.451
 1656SOL     OW 6113   3.621   1.675   1.368
 1656SOL    HW1 6114   3.549   1.637   1.419
 1656SOL    HW2 6115   3.638   1.760   1.409
 1656SOL     MW 6116   3.615   1.680   1.380
 1657SOL     OW 6117   3.335   1.133   1.646
 1657SOL    HW1 6118   3.417   1.174   1.676
 1657SOL    HW2 6119   3.298   1.095   1.726
 1657SOL     MW 6120   3.341   1.134   1.661
 1658SOL     OW 6121   2.003   0.393   1.022
 1658SOL    HW1 6122   1.975   0.484   1.031
 1658SOL    HW2 6123   1.940   0.354   0.961
 1658SOL     MW 6124   1.990   0.399   1.016
 1659SOL     OW 6125   2.462   1.731   0.328
 1659SOL    HW1 6126   2.383   1.689   0.361
 1659SOL    HW2 6127   2.528   1.714   0.395
 1659SOL     MW 6128   2.461   1.723   0.341
 1660SOL     OW 6129   3.724   0.886   1.227
 1660SOL    HW1 6130   3.740   0.924   1.140
 1660SOL    HW2 6131   3.758   0.952   1.288
 1660SOL     MW 6132   3.731   0.899   1.223
 1661SOL     OW 6133   3.516   1.595   0.896
 1661SOL    HW1 6134   3.545   1.662   0.957
 1661SOL    HW2 6135   3.497   1.519   0.951
 1661SOL     MW 6136   3.518   1.595   0.911
 1662SOL     OW 6137   3.403   1.336   0.045
 1662SOL    HW1 6138   3.350   1.385  -0.019
 1662SOL    HW2 6139   3.434   1.402   0.106
 1662SOL     MW 6140   3.401   1.350   0.043
 1663SOL     OW 6141   2.082   1.777   1.644
 1663SOL    HW1 6142   2.056   1.845   1.582
 1663SOL    HW2 6143   2.130   1.714   1.592
 1663SOL     MW 6144   2.084   1.777   1.630
 1664SOL     OW 6145   2.134   1.096   1.151
 1664SOL    HW1 6146   2.187   1.171   1.176
 1664SOL    HW2 6147   2.053   1.134   1.117
 1664SOL     MW 6148   2.130   1.111   1.151
 1665SOL     OW 6149   2.674   1.000   1.139
 1665SOL    HW1 6150   2.702   0.909   1.151
 1665SOL    HW2 6151   2.603   0.994   1.075
 1665SOL     MW 6152   2.667   0.988   1.134
 1666SOL     OW 6153   1.989   0.865   0.557
 1666SOL    HW1 6154   2.080   0.880   0.584
 1666SOL    HW2 6155   1.992   0.786   0.503
 1666SOL     MW 6156   2.001   0.857   0.555
 1667SOL     OW 6157   2.225   0.573   1.811
 1667SOL    HW1 6158   2.172   0.653   1.818
 1667SOL    HW2 6159   2.295   0.585   1.876
 1667SOL     MW 6160   2.227   0.586   1.819
 1668SOL     OW 6161   2.611   0.123   1.518
 1668SOL    HW1 6162   2.588   0.031   1.520
 1668SOL    HW2 6163   2.697   0.125   1.475
 1668SOL     MW 6164   2.618   0.113   1.514
 1669SOL     OW 6165   2.295   0.647   1.557
 1669SOL    HW1 6166   2.375   0.697   1.543
 1669SOL    HW2 6167   2.286   0.641   1.652
 1669SOL     MW 6168   2.304   0.653   1.567
 1670SOL     OW 6169   2.616   1.797   0.931
 1670SOL    HW1 6170   2.705   1.812   0.961
 1670SOL    HW2 6171   2.611   1.844   0.847
 1670SOL     MW 6172   2.626   1.805   0.924
 1671SOL     OW 6173   3.662   0.665   0.945
 1671SOL    HW1 6174   3.751   0.695   0.927
 1671SOL    HW2 6175   3.642   0.605   0.874
 1671SOL     MW 6176   3.671   0.662   0.934
 1672SOL     OW 6177   2.520   0.939   0.771
 1672SOL    HW1 6178   2.431   0.930   0.804
 1672SOL    HW2 6179   2.524   1.029   0.739
 1672SOL     MW 6180   2.509   0.950   0.771
 1673SOL     OW 6181   2.194   1.621   0.425
 1673SOL    HW1 6182   2.155   1.668   0.351
 1673SOL    HW2 6183   2.128   1.556   0.450
 1673SOL     MW 6184   2.181   1.619   0.419
 1674SOL     OW 6185   2.686   1.030   0.449
 1674SOL    HW1 6186   2.688   1.004   0.356
 1674SOL    HW2 6187   2.744   0.967   0.492
 1674SOL     MW 6188   2.694   1.019   0.443
 1675SOL     OW 6189   3.239   1.590   1.221
 1675SOL    HW1 6190   3.164   1.636   1.259
 1675SOL    HW2 6191   3.221   1.497   1.238
 1675SOL     MW 6192   3.228   1.584   1.229
 1676SOL     OW 6193   3.243   1.798   0.651
 1676SOL    HW1 6194   3.186   1.751   0.590
 1676SOL    HW2 6195   3.329   1.759   0.638
 1676SOL     MW 6196   3.246   1.789   0.641
 1677SOL     OW 6197   3.196   0.274   0.782
 1677SOL    HW1 6198   3.224   0.206   0.843
 1677SOL    HW2 6199   3.110   0.245   0.752
 1677SOL     MW 6200   3.189   0.261   0.786
 1678SOL     OW 6201   2.501   1.284   1.698
 1678SOL    HW1 6202   2.549   1.367   1.685
 1678SOL    HW2 6203   2.558   1.232   1.754
 1678SOL     MW 6204   2.515   1.288   1.704
 1679SOL     OW 6205   2.077   1.526   1.838
 1679SOL    HW1 6206   2.133   1.450   1.853
 1679SOL    HW2 6207   2.026   1.504   1.760
 1679SOL     MW 6208   2.077   1.513   1.829
 1680SOL     OW 6209   3.176   0.378   0.117
 1680SOL    HW1 6210   3.149   0.444   0.053
 1680SOL    HW2 6211   3.246   0.421   0.167
 1680SOL     MW 6212   3.181   0.391   0.114
 1681SOL     OW 6213   2.844   0.083   0.054
 1681SOL    HW1 6214   2.900   0.075  -0.024
 1681SOL    HW2 6215   2.821  -0.007   0.076
 1681SOL     MW 6216   2.849   0.070   0.047
 1682SOL     OW 6217   3.349   0.934   0.259
 1682SOL    HW1 6218   3.316   1.023   0.249
 1682SOL    HW2 6219   3.314   0.905   0.344
 1682SOL     MW 6220   3.339   0.943   0.270
 1683SOL     OW 6221   2.962   1.363   1.447
 1683SOL    HW1 6222   2.873   1.369   1.415
 1683SOL    HW2 6223   3.006   1.442   1.415
 1683SOL     MW 6224   2.957   1.373   1.439
 1684SOL     OW 6225   3.719   1.050   1.442
 1684SOL    HW1 6226   3.634   1.063   1.401
 1684SOL    HW2 6227   3.699   1.014   1.529
 1684SOL     MW 6228   3.706   1.046   1.447
 1685SOL     OW 6229   2.343   0.972   0.051
 1685SOL    HW1 6230   2.266   0.985   0.107
 1685SOL    HW2 6231   2.307   0.936  -0.030
 1685SOL     MW 6232   2.329   0.968   0.048
 1686SOL     OW 6233   2.996   0.945   0.294
 1686SOL    HW1 6234   2.906   0.966   0.269
 1686SOL    HW2 6235   3.023   1.018   0.350
 1686SOL     MW 6236   2.988   0.957   0.297
 1687SOL     OW 6237   2.496   1.294   0.986
 1687SOL    HW1 6238   2.489   1.273   1.080
 1687SOL    HW2 6239   2.414   1.262   0.949
 1687SOL     MW 6240   2.484   1.288   0.993
 1688SOL     OW 6241   3.360   0.304   1.388
 1688SOL    HW1 6242   3.307   0.306   1.468
 1688SOL    HW2 6243   3.345   0.217   1.351
 1688SOL     MW 6244   3.352   0.294   1.393
 1689SOL     OW 6245   3.696   0.228   1.261
 1689SOL    HW1 6246   3.677   0.295   1.196
 1689SOL    HW2 6247   3.753   0.166   1.216
 1689SOL     MW 6248   3.700   0.229   1.247
 1690SOL     OW 6249   1.942   1.386   1.649
 1690SOL    HW1 6250   1.986   1.319   1.595
 1690SOL    HW2 6251   1.857   1.348   1.669
 1690SOL     MW 6252   1.937   1.372   1.645
 1691SOL     OW 6253   2.625   0.061   0.701
 1691SOL    HW1 6254   2.554   0.122   0.683
 1691SOL    HW2 6255   2.676   0.058   0.620
 1691SOL     MW 6256   2.621   0.067   0.688
 1692SOL     OW 6257   2.978   1.694   1.359
 1692SOL    HW1 6258   2.898   1.679   1.309
 1692SOL    HW2 6259   2.985   1.789   1.366
 1692SOL     MW 6260   2.969   1.705   1.353
 1693SOL     OW 6261   3.092   1.659   0.849
 1693SOL    HW1 6262   3.139   1.732   0.808
 1693SOL    HW2 6263   3.013   1.698   0.885
 1693SOL     MW 6264   3.087   1.674   0.848
 1694SOL     OW 6265   3.500   1.754   1.124
 1694SOL    HW1 6266   3.543   1.724   1.204
 1694SOL    HW2 6267   3.419   1.702   1.121
 1694SOL     MW 6268   3.495   1.743   1.134
 1695SOL     OW 6269   2.585   0.718   1.831
 1695SOL    HW1 6270   2.655   0.660   1.803
 1695SOL    HW2 6271   2.528   0.663   1.886
 1695SOL     MW 6272   2.587   0.705   1.835
 1696SOL     OW 6273   3.372   0.930   1.464
 1696SOL    HW1 6274   3.377   0.983   1.544
 1696SOL    HW2 6275   3.334   0.847   1.492
 1696SOL     MW 6276   3.368   0.925   1.479
 1697SOL     OW 6277   3.012   0.065   1.710
 1697SOL    HW1 6278   3.007  -0.028   1.691
 1697SOL    HW2 6279   3.095   0.076   1.756
 1697SOL     MW 6280   3.020   0.054   1.714
 1698SOL     OW 6281   2.386   0.585   0.164
 1698SOL    HW1 6282   2.352   0.641   0.234
 1698SOL    HW2 6283   2.457   0.535   0.204
 1698SOL     MW 6284   2.392   0.586   0.178
 1699SOL     OW 6285   3.482   1.336   0.986
 1699SOL    HW1 6286   3.517   1.318   0.899
 1699SOL    HW2 6287   3.387   1.337   0.973
 1699SOL     MW 6288   3.474   1.333   0.973
 1700SOL     OW 6289   2.911   0.984   1.355
 1700SOL    HW1 6290   2.954   1.019   1.433
 1700SOL    HW2 6291   2.894   1.061   1.301
 1700SOL     MW 6292   2.914   0.999   1.358
 1701SOL     OW 6293   3.442   0.471   0.228
 1701SOL    HW1 6294   3.434   0.542   0.165
 1701SOL    HW2 6295   3.460   0.515   0.311
 1701SOL     MW 6296   3.443   0.485   0.230
 1702SOL     OW 6297   2.302   0.126   0.657
 1702SOL    HW1 6298   2.352   0.169   0.588
 1702SOL    HW2 6299   2.217   0.170   0.657
 1702SOL     MW 6300   2.299   0.139   0.648
 1703SOL     OW 6301   2.061   1.188   1.517
 1703SOL    HW1 6302   2.089   1.141   1.595
 1703SOL    HW2 6303   1.982   1.143   1.488
 1703SOL     MW 6304   2.054   1.177   1.523
 1704SOL     OW 6305   2.569   0.515   1.484
 1704SOL    HW1 6306   2.541   0.603   1.508
 1704SOL    HW2 6307   2.538   0.459   1.555
 1704SOL     MW 6308   2.561   0.518   1.496
 1705SOL     OW 6309   3.111   0.733   0.203
 1705SOL    HW1 6310   3.158   0.751   0.122
 1705SOL    HW2 6311   3.077   0.817   0.231
 1705SOL     MW 6312   3.113   0.747   0.196
 1706SOL     OW 6313   2.224   0.911   0.697
 1706SOL    HW1 6314   2.282   0.967   0.645
 1706SOL    HW2 6315   2.268   0.826   0.699
 1706SOL     MW 6316   2.237   0.908   0.690
 1707SOL     OW 6317   3.364   0.263   0.534
 1707SOL    HW1 6318   3.286   0.213   0.559
 1707SOL    HW2 6319   3.335   0.354   0.534
 1707SOL     MW 6320   3.350   0.267   0.537
 1708SOL     OW 6321   2.950   0.225   0.693
 1708SOL    HW1 6322   2.970   0.300   0.637
 1708SOL    HW2 6323   2.930   0.264   0.778
 1708SOL     MW 6324   2.951   0.241   0.697
 1709SOL     OW 6325   1.931   1.511   0.869
 1709SOL    HW1 6326   1.963   1.515   0.960
 1709SOL    HW2 6327   1.836   1.519   0.877
 1709SOL     MW 6328   1.923   1.514   0.882
 1710SOL     OW 6329   1.886   0.637   0.416
 1710SOL    HW1 6330   1.826   0.609   0.486
 1710SOL    HW2 6331   1.960   0.577   0.422
 1710SOL     MW 6332   1.888   0.626   0.425
 1711SOL     OW 6333   3.054   1.368   0.576
 1711SOL    HW1 6334   3.077   1.319   0.654
 1711SOL    HW2 6335   3.135   1.410   0.548
 1711SOL     MW 6336   3.067   1.368   0.583
 1712SOL     OW 6337   3.194   0.347   1.593
 1712SOL    HW1 6338   3.101   0.331   1.580
 1712SOL    HW2 6339   3.220   0.285   1.661
 1712SOL     MW 6340   3.184   0.337   1.600
 1713SOL     OW 6341   2.503   1.736   1.478
 1713SOL    HW1 6342   2.420   1.721   1.523
 1713SOL    HW2 6343   2.562   1.669   1.513
 1713SOL     MW 6344   2.501   1.726   1.488
 1714SOL     OW 6345   3.560   0.443   1.103
 1714SOL    HW1 6346   3.493   0.476   1.163
 1714SOL    HW2 6347   3.603   0.521   1.069
 1714SOL     MW 6348   3.558   0.458   1.107
 1715SOL     OW 6349   3.738   1.163   1.073
 1715SOL    HW1 6350   3.731   1.103   0.998
 1715SOL    HW2 6351   3.664   1.223   1.062
 1715SOL     MW 6352   3.728   1.163   1.062
 1716SOL     OW 6353   3.120   1.025   0.991
 1716SOL    HW1 6354   3.134   0.997   1.082
 1716SOL    HW2 6355   3.206   1.056   0.963
 1716SOL     MW 6356   3.133   1.026   1.000
 1717SOL     OW 6357   3.203   0.520   1.270
 1717SOL    HW1 6358   3.224   0.521   1.177
 1717SOL    HW2 6359   3.248   0.442   1.303
 1717SOL     MW 6360   3.210   0.510   1.262
 1718SOL     OW 6361   3.696   0.651   1.812
 1718SOL    HW1 6362   3.733   0.596   1.881
 1718SOL    HW2 6363   3.721   0.608   1.730
 1718SOL     MW 6364   3.703   0.639   1.811
 1719SOL     OW 6365   3.243   0.949   1.863
 1719SOL    HW1 6366   3.309   0.897   1.817
 1719SOL    HW2 6367   3.263   0.936   1.956
 1719SOL     MW 6368   3.254   0.940   1.870
 1720SOL     OW 6369   2.468   1.745   1.206
 1720SOL    HW1 6370   2.520   1.822   1.183
 1720SOL    HW2 6371   2.477   1.737   1.301
 1720SOL     MW 6372   2.477   1.752   1.217
 1721SOL     OW 6373   3.370   1.330   1.438
 1721SOL    HW1 6374   3.355   1.259   1.501
 1721SOL    HW2 6375   3.416   1.288   1.366
 1721SOL     MW 6376   3.376   1.314   1.438
 1722SOL     OW 6377   2.444   1.061   1.555
 1722SOL    HW1 6378   2.481   1.066   1.467
 1722SOL    HW2 6379   2.483   1.134   1.602
 1722SOL     MW 6380   2.454   1.071   1.550
 1723SOL     OW 6381   2.624   1.104   1.367
 1723SOL    HW1 6382   2.683   1.050   1.420
 1723SOL    HW2 6383   2.639   1.076   1.277
 1723SOL     MW 6384   2.634   1.093   1.363
 1724SOL     OW 6385   2.627   0.476   0.216
 1724SOL    HW1 6386   2.700   0.525   0.179
 1724SOL    HW2 6387   2.643   0.385   0.190
 1724SOL     MW 6388   2.639   0.471   0.209
 1725SOL     OW 6389   3.435   1.593   1.539
 1725SOL    HW1 6390   3.477   1.578   1.624
 1725SOL    HW2 6391   3.426   1.506   1.501
 1725SOL     MW 6392   3.439   1.581   1.546
 1726SOL     OW 6393   3.095   0.072   1.130
 1726SOL    HW1 6394   3.150   0.081   1.052
 1726SOL    HW2 6395   3.150   0.106   1.201
 1726SOL     MW 6396   3.109   0.077   1.129
 1727SOL     OW 6397   2.102   0.985   0.314
 1727SOL    HW1 6398   2.039   1.001   0.243
 1727SOL    HW2 6399   2.049   0.948   0.385
 1727SOL     MW 6400   2.087   0.982   0.314
 1728SOL     OW 6401   2.458   1.339   0.173
 1728SOL    HW1 6402   2.473   1.315   0.265
 1728SOL    HW2 6403   2.366   1.317   0.157
 1728SOL     MW 6404   2.448   1.332   0.183
 1729SOL     OW 6405   2.997   1.570   0.325
 1729SOL    HW1 6406   3.005   1.488   0.276
 1729SOL    HW2 6407   2.916   1.609   0.292
 1729SOL     MW 6408   2.987   1.565   0.315
 1730SOL     OW 6409   2.873   1.206   1.137
 1730SOL    HW1 6410   2.805   1.140   1.153
 1730SOL    HW2 6411   2.891   1.200   1.044
 1730SOL     MW 6412   2.866   1.197   1.128
 1731SOL     OW 6413   1.962   1.481   1.388
 1731SOL    HW1 6414   1.952   1.439   1.474
 1731SOL    HW2 6415   1.883   1.534   1.378
 1731SOL     MW 6416   1.951   1.482   1.399
 1732SOL     OW 6417   2.866   0.345   0.958
 1732SOL    HW1 6418   2.796   0.297   1.003
 1732SOL    HW2 6419   2.898   0.408   1.022
 1732SOL     MW 6420   2.861   0.347   0.972
 1733SOL     OW 6421   2.517   0.781   1.578
 1733SOL    HW1 6422   2.510   0.876   1.566
 1733SOL    HW2 6423   2.526   0.770   1.673
 1733SOL     MW 6424   2.518   0.793   1.588
 1734SOL     OW 6425   2.238   1.296   1.836
 1734SOL    HW1 6426   2.310   1.298   1.773
 1734SOL    HW2 6427   2.208   1.205   1.835
 1734SOL     MW 6428   2.243   1.285   1.828
 1735SOL     OW 6429   3.322   0.059   1.303
 1735SOL    HW1 6430   3.393   0.005   1.267
 1735SOL    HW2 6431   3.321   0.038   1.396
 1735SOL     MW 6432   3.331   0.050   1.311
 1736SOL     OW 6433   3.522   1.589   1.787
 1736SOL    HW1 6434   3.495   1.586   1.878
 1736SOL    HW2 6435   3.618   1.593   1.790
 1736SOL     MW 6436   3.532   1.589   1.799
 1737SOL     OW 6437   1.888   1.786   1.843
 1737SOL    HW1 6438   1.938   1.764   1.765
 1737SOL    HW2 6439   1.896   1.881   1.851
 1737SOL     MW 6440   1.896   1.795   1.834
 1738SOL     OW 6441   2.969   0.392   0.495
 1738SOL    HW1 6442   2.991   0.329   0.427
 1738SOL    HW2 6443   2.874   0.384   0.506
 1738SOL     MW 6444   2.959   0.383   0.487
 1739SOL     OW 6445   1.885   0.549   1.570
 1739SOL    HW1 6446   1.949   0.615   1.545
 1739SOL    HW2 6447   1.804   0.576   1.527
 1739SOL     MW 6448   1.883   0.561   1.562
 1740SOL     OW 6449   3.623   1.456   0.527
 1740SOL    HW1 6450   3.593   1.389   0.588
 1740SOL    HW2 6451   3.717   1.462   0.541
 1740SOL     MW 6452   3.631   1.448   0.537
 1741SOL     OW 6453   2.841   0.053   0.510
 1741SOL    HW1 6454   2.878   0.112   0.575
 1741SOL    HW2 6455   2.818   0.109   0.436
 1741SOL     MW 6456   2.842   0.068   0.509
 1742SOL     OW 6457   3.694   0.935   0.932
 1742SOL    HW1 6458   3.685   0.967   0.843
 1742SOL    HW2 6459   3.647   0.851   0.932
 1742SOL     MW 6460   3.687   0.928   0.922
 1743SOL     OW 6461   2.070   0.775   1.511
 1743SOL    HW1 6462   2.091   0.844   1.449
 1743SOL    HW2 6463   2.150   0.722   1.516
 1743SOL     MW 6464   2.083   0.776   1.505
 1744SOL     OW 6465   2.055   0.790   1.778
 1744SOL    HW1 6466   1.981   0.734   1.804
 1744SOL    HW2 6467   2.050   0.793   1.683
 1744SOL     MW 6468   2.044   0.783   1.768
 1745SOL     OW 6469   2.262   0.744   0.406
 1745SOL    HW1 6470   2.262   0.839   0.391
 1745SOL    HW2 6471   2.339   0.728   0.460
 1745SOL     MW 6472   2.272   0.755   0.411
 1746SOL     OW 6473   3.038   0.603   1.470
 1746SOL    HW1 6474   3.074   0.576   1.386
 1746SOL    HW2 6475   2.951   0.637   1.449
 1746SOL     MW 6476   3.032   0.604   1.457
 1747SOL     OW 6477   2.021   0.475   0.695
 1747SOL    HW1 6478   2.083   0.482   0.768
 1747SOL    HW2 6479   2.021   0.382   0.672
 1747SOL     MW 6480   2.029   0.464   0.702
 1748SOL     OW 6481   3.568   1.815   0.227
 1748SOL    HW1 6482   3.635   1.848   0.167
 1748SOL    HW2 6483   3.525   1.894   0.261
 1748SOL     MW 6484   3.570   1.830   0.223
 1749SOL     OW 6485   2.703   0.736   1.179
 1749SOL    HW1 6486   2.661   0.654   1.155
 1749SOL    HW2 6487   2.704   0.735   1.275
 1749SOL     MW 6488   2.696   0.725   1.188
 1750SOL     OW 6489   3.374   1.869   1.578
 1750SOL    HW1 6490   3.377   1.775   1.561
 1750SOL    HW2 6491   3.397   1.877   1.670
 1750SOL     MW 6492   3.377   1.857   1.588
 1751SOL     OW 6493   1.890   1.047   0.153
 1751SOL    HW1 6494   1.859   1.112   0.216
 1751SOL    HW2 6495   1.839   0.969   0.172
 1751SOL     MW 6496   1.880   1.044   0.163
 1752SOL     OW 6497   3.302   0.059   0.901
 1752SOL    HW1 6498   3.390   0.068   0.938
 1752SOL    HW2 6499   3.312   0.000   0.827
 1752SOL     MW 6500   3.316   0.053   0.895
 1753SOL     OW 6501   2.474   1.847   0.095
 1753SOL    HW1 6502   2.379   1.847   0.087
 1753SOL    HW2 6503   2.490   1.793   0.173
 1753SOL     MW 6504   2.464   1.841   0.104
 1754SOL     OW 6505   2.202   1.024   1.690
 1754SOL    HW1 6506   2.156   0.940   1.692
 1754SOL    HW2 6507   2.259   1.018   1.614
 1754SOL     MW 6508   2.204   1.012   1.682
 1755SOL     OW 6509   3.319   0.667   0.011
 1755SOL    HW1 6510   3.247   0.643  -0.047
 1755SOL    HW2 6511   3.385   0.704  -0.047
 1755SOL     MW 6512   3.318   0.669  -0.004
 1756SOL     OW 6513   2.453   1.399   0.691
 1756SOL    HW1 6514   2.518   1.332   0.712
 1756SOL    HW2 6515   2.505   1.476   0.668
 1756SOL     MW 6516   2.468   1.401   0.690
 1757SOL     OW 6517   2.714   0.564   0.821
 1757SOL    HW1 6518   2.654   0.582   0.893
 1757SOL    HW2 6519   2.748   0.476   0.840
 1757SOL     MW 6520   2.710   0.554   0.834
 1758SOL     OW 6521   3.655   0.063   1.490
 1758SOL    HW1 6522   3.576   0.109   1.518
 1758SOL    HW2 6523   3.690   0.117   1.419
 1758SOL     MW 6524   3.649   0.076   1.484
 1759SOL     OW 6525   2.939   1.147   0.840
 1759SOL    HW1 6526   3.031   1.128   0.858
 1759SOL    HW2 6527   2.912   1.077   0.780
 1759SOL     MW 6528   2.947   1.135   0.834
 1760SOL     OW 6529   2.732   0.967   0.195
 1760SOL    HW1 6530   2.718   0.879   0.160
 1760SOL    HW2 6531   2.683   1.024   0.136
 1760SOL     MW 6532   2.724   0.962   0.183
 1761SOL     OW 6533   3.213   1.385   0.936
 1761SOL    HW1 6534   3.186   1.469   0.901
 1761SOL    HW2 6535   3.173   1.380   1.023
 1761SOL     MW 6536   3.206   1.394   0.942
 1762SOL     OW 6537   3.132   1.333   1.204
 1762SOL    HW1 6538   3.143   1.300   1.293
 1762SOL    HW2 6539   3.051   1.292   1.173
 1762SOL     MW 6540   3.122   1.325   1.210
 1763SOL     OW 6541   3.212   1.455   1.736
 1763SOL    HW1 6542   3.212   1.549   1.752
 1763SOL    HW2 6543   3.257   1.445   1.652
 1763SOL     MW 6544   3.218   1.465   1.727
 1764SOL     OW 6545   2.740   0.736   0.411
 1764SOL    HW1 6546   2.720   0.722   0.318
 1764SOL    HW2 6547   2.833   0.715   0.418
 1764SOL     MW 6548   2.750   0.731   0.400
 1765SOL     OW 6549   2.067   0.359   1.715
 1765SOL    HW1 6550   2.024   0.418   1.652
 1765SOL    HW2 6551   2.135   0.414   1.755
 1765SOL     MW 6552   2.071   0.374   1.712
 1766SOL     OW 6553   3.179   0.979   1.260
 1766SOL    HW1 6554   3.242   0.976   1.333
 1766SOL    HW2 6555   3.095   0.997   1.302
 1766SOL     MW 6556   3.175   0.981   1.275
 1767SOL     OW 6557   3.518   0.156   1.039
 1767SOL    HW1 6558   3.563   0.074   1.058
 1767SOL    HW2 6559   3.538   0.212   1.115
 1767SOL     MW 6560   3.528   0.152   1.051
 1768SOL     OW 6561   2.179   0.126   0.184
 1768SOL    HW1 6562   2.108   0.181   0.152
 1768SOL    HW2 6563   2.221   0.092   0.105
 1768SOL     MW 6564   2.175   0.128   0.170
 1769SOL     OW 6565   1.969   1.482   0.222
 1769SOL    HW1 6566   1.986   1.566   0.264
 1769SOL    HW2 6567   2.004   1.491   0.134
 1769SOL     MW 6568   1.974   1.495   0.216
 1770SOL     OW 6569   3.604   0.839   2.125
 1770SOL    HW1 6570   3.645   0.781   2.190
 1770SOL    HW2 6571   3.511   0.831   2.142
 1770SOL     MW 6572   3.598   0.831   2.135
 1771SOL     OW 6573   3.470   0.771   3.120
 1771SOL    HW1 6574   3.425   0.838   3.171
 1771SOL    HW2 6575   3.558   0.807   3.106
 1771SOL     MW 6576   3.476   0.784   3.124
 1772SOL     OW 6577   2.398   1.022   2.354
 1772SOL    HW1 6578   2.488   0.997   2.338
 1772SOL    HW2 6579   2.394   1.115   2.331
 1772SOL     MW 6580   2.410   1.031   2.349
 1773SOL     OW 6581   3.514   1.725   2.496
 1773SOL    HW1 6582   3.526   1.671   2.574
 1773SOL    HW2 6583   3.551   1.673   2.425
 1773SOL     MW 6584   3.520   1.710   2.497
 1774SOL     OW 6585   2.893   1.610   3.497
 1774SOL    HW1 6586   2.934   1.646   3.418
 1774SOL    HW2 6587   2.928   1.521   3.504
 1774SOL     MW 6588   2.904   1.603   3.488
 1775SOL     OW 6589   3.450   1.165   3.101
 1775SOL    HW1 6590   3.371   1.130   3.059
 1775SOL    HW2 6591   3.477   1.237   3.045
 1775SOL     MW 6592   3.443   1.170   3.088
 1776SOL     OW 6593   2.124   0.506   2.295
 1776SOL    HW1 6594   2.156   0.594   2.277
 1776SOL    HW2 6595   2.112   0.504   2.390
 1776SOL     MW 6596   2.127   0.518   2.307
 1777SOL     OW 6597   2.202   0.919   3.196
 1777SOL    HW1 6598   2.265   0.866   3.147
 1777SOL    HW2 6599   2.183   0.993   3.139
 1777SOL     MW 6600   2.208   0.921   3.183
 1778SOL     OW 6601   2.610   1.188   2.557
 1778SOL    HW1 6602   2.690   1.191   2.609
 1778SOL    HW2 6603   2.638   1.155   2.471
 1778SOL     MW 6604   2.624   1.184   2.552
 1779SOL     OW 6605   2.635   1.529   3.460
 1779SOL    HW1 6606   2.719   1.555   3.499
 1779SOL    HW2 6607   2.659   1.473   3.386
 1779SOL     MW 6608   2.649   1.525   3.455
 1780SOL     OW 6609   2.529   0.518   2.925
 1780SOL    HW1 6610   2.435   0.514   2.943
 1780SOL    HW2 6611   2.559   0.427   2.934
 1780SOL     MW 6612   2.520   0.506   2.928
 1781SOL     OW 6613   2.275   0.932   2.829
 1781SOL    HW1 6614   2.230   0.939   2.745
 1781SOL    HW2 6615   2.255   1.015   2.873
 1781SOL     MW 6616   2.267   0.944   2.823
 1782SOL     OW 6617   3.237   1.170   2.073
 1782SOL    HW1 6618   3.155   1.206   2.039
 1782SOL    HW2 6619   3.305   1.213   2.022
 1782SOL     MW 6620   3.235   1.180   2.061
 1783SOL     OW 6621   2.236   1.305   2.739
 1783SOL    HW1 6622   2.212   1.358   2.815
 1783SOL    HW2 6623   2.292   1.363   2.687
 1783SOL     MW 6624   2.240   1.320   2.742
 1784SOL     OW 6625   2.798   0.949   2.549
 1784SOL    HW1 6626   2.712   0.936   2.589
 1784SOL    HW2 6627   2.851   0.876   2.581
 1784SOL     MW 6628   2.794   0.938   2.558
 1785SOL     OW 6629   2.789   1.311   2.266
 1785SOL    HW1 6630   2.766   1.373   2.334
 1785SOL    HW2 6631   2.746   1.229   2.292
 1785SOL     MW 6632   2.781   1.307   2.277
 1786SOL     OW 6633   3.662   0.312   2.722
 1786SOL    HW1 6634   3.599   0.292   2.791
 1786SOL    HW2 6635   3.652   0.241   2.659
 1786SOL     MW 6636   3.652   0.299   2.723
 1787SOL     OW 6637   2.286   0.284   2.234
 1787SOL    HW1 6638   2.260   0.246   2.150
 1787SOL    HW2 6639   2.223   0.354   2.250
 1787SOL     MW 6640   2.275   0.287   2.225
 1788SOL     OW 6641   2.121   1.245   2.271
 1788SOL    HW1 6642   2.069   1.313   2.227
 1788SOL    HW2 6643   2.118   1.171   2.211
 1788SOL     MW 6644   2.113   1.244   2.258
 1789SOL     OW 6645   3.718   0.481   2.024
 1789SOL    HW1 6646   3.627   0.483   2.052
 1789SOL    HW2 6647   3.763   0.543   2.082
 1789SOL     MW 6648   3.711   0.489   2.034
 1790SOL     OW 6649   3.463   1.084   2.374
 1790SOL    HW1 6650   3.373   1.084   2.409
 1790SOL    HW2 6651   3.456   1.130   2.291
 1790SOL     MW 6652   3.450   1.090   2.368
 1791SOL     OW 6653   3.263   0.719   3.446
 1791SOL    HW1 6654   3.332   0.657   3.423
 1791SOL    HW2 6655   3.188   0.693   3.393
 1791SOL     MW 6656   3.263   0.706   3.437
 1792SOL     OW 6657   2.795   0.530   3.639
 1792SOL    HW1 6658   2.885   0.531   3.606
 1792SOL    HW2 6659   2.754   0.455   3.597
 1792SOL     MW 6660   2.801   0.520   3.630
 1793SOL     OW 6661   3.370   1.062   2.766
 1793SOL    HW1 6662   3.373   0.996   2.697
 1793SOL    HW2 6663   3.455   1.105   2.762
 1793SOL     MW 6664   3.382   1.058   2.757
 1794SOL     OW 6665   2.990   0.665   2.335
 1794SOL    HW1 6666   3.016   0.689   2.246
 1794SOL    HW2 6667   2.972   0.572   2.331
 1794SOL     MW 6668   2.992   0.657   2.322
 1795SOL     OW 6669   3.655   1.285   2.186
 1795SOL    HW1 6670   3.611   1.326   2.261
 1795SOL    HW2 6671   3.712   1.353   2.151
 1795SOL     MW 6672   3.657   1.299   2.191
 1796SOL     OW 6673   2.575   0.334   3.589
 1796SOL    HW1 6674   2.585   0.260   3.529
 1796SOL    HW2 6675   2.611   0.303   3.672
 1796SOL     MW 6676   2.581   0.320   3.591
 1797SOL     OW 6677   2.027   1.761   2.081
 1797SOL    HW1 6678   2.056   1.851   2.073
 1797SOL    HW2 6679   1.977   1.744   2.002
 1797SOL     MW 6680   2.025   1.769   2.070
 1798SOL     OW 6681   2.829   0.694   1.996
 1798SOL    HW1 6682   2.831   0.641   1.917
 1798SOL    HW2 6683   2.917   0.731   2.002
 1798SOL     MW 6684   2.841   0.693   1.985
 1799SOL     OW 6685   3.443   0.620   2.332
 1799SOL    HW1 6686   3.482   0.620   2.419
 1799SOL    HW2 6687   3.384   0.696   2.332
 1799SOL     MW 6688   3.440   0.631   2.343
 1800SOL     OW 6689   2.760   0.987   3.461
 1800SOL    HW1 6690   2.737   0.967   3.551
 1800SOL    HW2 6691   2.845   1.031   3.466
 1800SOL     MW 6692   2.767   0.990   3.473
 1801SOL     OW 6693   2.929   0.613   3.055
 1801SOL    HW1 6694   3.004   0.642   3.002
 1801SOL    HW2 6695   2.861   0.678   3.039
 1801SOL     MW 6696   2.930   0.625   3.045
 1802SOL     OW 6697   3.479   0.581   3.332
 1802SOL    HW1 6698   3.460   0.490   3.311
 1802SOL    HW2 6699   3.457   0.630   3.253
 1802SOL     MW 6700   3.474   0.574   3.319
 1803SOL     OW 6701   2.926   0.319   3.438
 1803SOL    HW1 6702   2.892   0.358   3.357
 1803SOL    HW2 6703   2.904   0.227   3.431
 1803SOL     MW 6704   2.919   0.312   3.428
 1804SOL     OW 6705   3.335   1.133   3.514
 1804SOL    HW1 6706   3.417   1.174   3.544
 1804SOL    HW2 6707   3.298   1.095   3.594
 1804SOL     MW 6708   3.341   1.134   3.529
 1805SOL     OW 6709   3.630   0.506   2.498
 1805SOL    HW1 6710   3.719   0.475   2.515
 1805SOL    HW2 6711   3.573   0.446   2.546
 1805SOL     MW 6712   3.633   0.494   2.507
 1806SOL     OW 6713   2.056   0.220   2.527
 1806SOL    HW1 6714   2.047   0.160   2.453
 1806SOL    HW2 6715   1.989   0.191   2.590
 1806SOL     MW 6716   2.046   0.207   2.525
 1807SOL     OW 6717   3.590   1.251   3.593
 1807SOL    HW1 6718   3.640   1.177   3.625
 1807SOL    HW2 6719   3.536   1.278   3.668
 1807SOL     MW 6720   3.590   1.245   3.606
 1808SOL     OW 6721   2.598   1.146   1.903
 1808SOL    HW1 6722   2.520   1.092   1.890
 1808SOL    HW2 6723   2.569   1.219   1.956
 1808SOL     MW 6724   2.584   1.148   1.908
 1809SOL     OW 6725   3.724   0.886   3.095
 1809SOL    HW1 6726   3.740   0.924   3.008
 1809SOL    HW2 6727   3.758   0.952   3.156
 1809SOL     MW 6728   3.731   0.899   3.091
 1810SOL     OW 6729   3.516   1.595   2.764
 1810SOL    HW1 6730   3.545   1.662   2.825
 1810SOL    HW2 6731   3.497   1.519   2.819
 1810SOL     MW 6732   3.518   1.595   2.779
 1811SOL     OW 6733   3.179   1.662   1.971
 1811SOL    HW1 6734   3.105   1.625   2.021
 1811SOL    HW2 6735   3.187   1.752   2.004
 1811SOL     MW 6736   3.170   1.669   1.983
 1812SOL     OW 6737   1.987   0.668   3.060
 1812SOL    HW1 6738   2.049   0.698   3.126
 1812SOL    HW2 6739   1.921   0.737   3.054
 1812SOL     MW 6740   1.986   0.681   3.067
 1813SOL     OW 6741   3.403   1.336   1.913
 1813SOL    HW1 6742   3.350   1.385   1.849
 1813SOL    HW2 6743   3.434   1.402   1.974
 1813SOL     MW 6744   3.401   1.350   1.911
 1814SOL     OW 6745   2.628   0.225   1.968
 1814SOL    HW1 6746   2.576   0.145   1.956
 1814SOL    HW2 6747   2.715   0.202   1.936
 1814SOL     MW 6748   2.631   0.211   1.962
 1815SOL     OW 6749   2.134   1.096   3.019
 1815SOL    HW1 6750   2.187   1.171   3.044
 1815SOL    HW2 6751   2.053   1.134   2.985
 1815SOL     MW 6752   2.130   1.111   3.019
 1816SOL     OW 6753   2.616   1.797   2.799
 1816SOL    HW1 6754   2.705   1.812   2.829
 1816SOL    HW2 6755   2.611   1.844   2.715
 1816SOL     MW 6756   2.626   1.805   2.792
 1817SOL     OW 6757   3.272   0.172   3.696
 1817SOL    HW1 6758   3.328   0.099   3.722
 1817SOL    HW2 6759   3.242   0.210   3.778
 1817SOL     MW 6760   3.276   0.167   3.709
 1818SOL     OW 6761   1.997   1.477   2.464
 1818SOL    HW1 6762   1.969   1.516   2.546
 1818SOL    HW2 6763   2.017   1.386   2.486
 1818SOL     MW 6764   1.995   1.469   2.477
 1819SOL     OW 6765   2.830   1.520   2.499
 1819SOL    HW1 6766   2.913   1.474   2.483
 1819SOL    HW2 6767   2.820   1.519   2.595
 1819SOL     MW 6768   2.840   1.513   2.509
 1820SOL     OW 6769   3.662   0.665   2.813
 1820SOL    HW1 6770   3.751   0.695   2.795
 1820SOL    HW2 6771   3.642   0.605   2.742
 1820SOL     MW 6772   3.671   0.662   2.802
 1821SOL     OW 6773   2.563   1.577   1.904
 1821SOL    HW1 6774   2.503   1.646   1.874
 1821SOL    HW2 6775   2.508   1.519   1.957
 1821SOL     MW 6776   2.547   1.579   1.906
 1822SOL     OW 6777   2.808   0.406   3.212
 1822SOL    HW1 6778   2.727   0.447   3.240
 1822SOL    HW2 6779   2.855   0.474   3.164
 1822SOL     MW 6780   2.803   0.421   3.210
 1823SOL     OW 6781   3.319   0.522   2.634
 1823SOL    HW1 6782   3.264   0.443   2.633
 1823SOL    HW2 6783   3.301   0.563   2.718
 1823SOL     MW 6784   3.309   0.517   2.643
 1824SOL     OW 6785   2.290   0.209   3.451
 1824SOL    HW1 6786   2.211   0.227   3.503
 1824SOL    HW2 6787   2.285   0.271   3.378
 1824SOL     MW 6788   2.280   0.219   3.448
 1825SOL     OW 6789   2.938   0.726   2.591
 1825SOL    HW1 6790   2.875   0.658   2.615
 1825SOL    HW2 6791   2.958   0.707   2.499
 1825SOL     MW 6792   2.932   0.713   2.583
 1826SOL     OW 6793   3.243   1.798   2.519
 1826SOL    HW1 6794   3.186   1.751   2.458
 1826SOL    HW2 6795   3.329   1.759   2.506
 1826SOL     MW 6796   3.246   1.789   2.509
 1827SOL     OW 6797   3.196   0.274   2.650
 1827SOL    HW1 6798   3.224   0.206   2.711
 1827SOL    HW2 6799   3.110   0.245   2.620
 1827SOL     MW 6800   3.189   0.261   2.654
 1828SOL     OW 6801   2.501   1.284   3.566
 1828SOL    HW1 6802   2.549   1.367   3.553
 1828SOL    HW2 6803   2.558   1.232   3.622
 1828SOL     MW 6804   2.515   1.288   3.572
 1829SOL     OW 6805   3.176   0.378   1.985
 1829SOL    HW1 6806   3.149   0.444   1.921
 1829SOL    HW2 6807   3.246   0.421   2.035
 1829SOL     MW 6808   3.181   0.391   1.982
 1830SOL     OW 6809   3.349   0.934   2.127
 1830SOL    HW1 6810   3.316   1.023   2.117
 1830SOL    HW2 6811   3.314   0.905   2.212
 1830SOL     MW 6812   3.339   0.943   2.138
 1831SOL     OW 6813   2.962   1.363   3.315
 1831SOL    HW1 6814   2.873   1.369   3.283
 1831SOL    HW2 6815   3.006   1.442   3.283
 1831SOL     MW 6816   2.957   1.373   3.307
 1832SOL     OW 6817   2.279   1.521   2.956
 1832SOL    HW1 6818   2.324   1.583   3.013
 1832SOL    HW2 6819   2.186   1.540   2.969
 1832SOL     MW 6820   2.272   1.531   2.963
 1833SOL     OW 6821   3.719   1.050   3.310
 1833SOL    HW1 6822   3.634   1.063   3.269
 1833SOL    HW2 6823   3.699   1.014   3.397
 1833SOL     MW 6824   3.706   1.046   3.315
 1834SOL     OW 6825   2.701   1.589   3.064
 1834SOL    HW1 6826   2.725   1.578   2.973
 1834SOL    HW2 6827   2.624   1.646   3.062
 1834SOL     MW 6828   2.693   1.594   3.053
 1835SOL     OW 6829   2.343   0.972   1.919
 1835SOL    HW1 6830   2.266   0.985   1.975
 1835SOL    HW2 6831   2.307   0.936   1.838
 1835SOL     MW 6832   2.329   0.968   1.916
 1836SOL     OW 6833   2.496   1.294   2.854
 1836SOL    HW1 6834   2.489   1.273   2.948
 1836SOL    HW2 6835   2.414   1.262   2.817
 1836SOL     MW 6836   2.484   1.288   2.861
 1837SOL     OW 6837   2.383   1.301   2.318
 1837SOL    HW1 6838   2.376   1.333   2.408
 1837SOL    HW2 6839   2.293   1.285   2.290
 1837SOL     MW 6840   2.371   1.303   2.325
 1838SOL     OW 6841   2.978   1.694   3.227
 1838SOL    HW1 6842   2.898   1.679   3.177
 1838SOL    HW2 6843   2.985   1.789   3.234
 1838SOL     MW 6844   2.969   1.705   3.221
 1839SOL     OW 6845   3.092   1.659   2.717
 1839SOL    HW1 6846   3.139   1.732   2.676
 1839SOL    HW2 6847   3.013   1.698   2.753
 1839SOL     MW 6848   3.087   1.674   2.716
 1840SOL     OW 6849   3.500   1.754   2.992
 1840SOL    HW1 6850   3.543   1.724   3.072
 1840SOL    HW2 6851   3.419   1.702   2.989
 1840SOL     MW 6852   3.495   1.743   3.002
 1841SOL     OW 6853   3.372   0.930   3.332
 1841SOL    HW1 6854   3.377   0.983   3.412
 1841SOL    HW2 6855   3.334   0.847   3.360
 1841SOL     MW 6856   3.368   0.925   3.347
 1842SOL     OW 6857   3.012   0.065   3.578
 1842SOL    HW1 6858   3.007  -0.028   3.559
 1842SOL    HW2 6859   3.095   0.076   3.624
 1842SOL     MW 6860   3.020   0.054   3.582
 1843SOL     OW 6861   3.482   1.336   2.854
 1843SOL    HW1 6862   3.517   1.318   2.767
 1843SOL    HW2 6863   3.387   1.337   2.841
 1843SOL     MW 6864   3.474   1.333   2.841
 1844SOL     OW 6865   3.442   0.471   2.096
 1844SOL    HW1 6866   3.434   0.542   2.033
 1844SOL    HW2 6867   3.460   0.515   2.179
 1844SOL     MW 6868   3.443   0.485   2.098
 1845SOL     OW 6869   2.302   0.126   2.525
 1845SOL    HW1 6870   2.352   0.169   2.456
 1845SOL    HW2 6871   2.217   0.170   2.525
 1845SOL     MW 6872   2.299   0.139   2.516
 1846SOL     OW 6873   2.061   1.188   3.385
 1846SOL    HW1 6874   2.089   1.141   3.463
 1846SOL    HW2 6875   1.982   1.143   3.356
 1846SOL     MW 6876   2.054   1.177   3.391
 1847SOL     OW 6877   2.569   0.515   3.352
 1847SOL    HW1 6878   2.541   0.603   3.376
 1847SOL    HW2 6879   2.538   0.459   3.423
 1847SOL     MW 6880   2.561   0.518   3.364
 1848SOL     OW 6881   3.111   0.733   2.071
 1848SOL    HW1 6882   3.158   0.751   1.990
 1848SOL    HW2 6883   3.077   0.817   2.099
 1848SOL     MW 6884   3.113   0.747   2.064
 1849SOL     OW 6885   3.364   0.263   2.402
 1849SOL    HW1 6886   3.286   0.213   2.427
 1849SOL    HW2 6887   3.335   0.354   2.402
 1849SOL     MW 6888   3.350   0.267   2.405
 1850SOL     OW 6889   2.950   0.225   2.561
 1850SOL    HW1 6890   2.970   0.300   2.505
 1850SOL    HW2 6891   2.930   0.264   2.646
 1850SOL     MW 6892   2.951   0.241   2.565
 1851SOL     OW 6893   2.846   1.475   1.893
 1851SOL    HW1 6894   2.873   1.553   1.845
 1851SOL    HW2 6895   2.753   1.490   1.912
 1851SOL     MW 6896   2.837   1.488   1.889
 1852SOL     OW 6897   3.710   0.998   3.580
 1852SOL    HW1 6898   3.623   0.978   3.616
 1852SOL    HW2 6899   3.764   0.924   3.605
 1852SOL     MW 6900   3.705   0.987   3.588
 1853SOL     OW 6901   1.886   0.637   2.284
 1853SOL    HW1 6902   1.826   0.609   2.354
 1853SOL    HW2 6903   1.960   0.577   2.290
 1853SOL     MW 6904   1.888   0.626   2.293
 1854SOL     OW 6905   3.054   1.368   2.444
 1854SOL    HW1 6906   3.077   1.319   2.522
 1854SOL    HW2 6907   3.135   1.410   2.416
 1854SOL     MW 6908   3.067   1.368   2.451
 1855SOL     OW 6909   3.095   0.552   3.600
 1855SOL    HW1 6910   3.147   0.487   3.553
 1855SOL    HW2 6911   3.053   0.603   3.530
 1855SOL     MW 6912   3.096   0.549   3.583
 1856SOL     OW 6913   3.194   0.347   3.461
 1856SOL    HW1 6914   3.101   0.331   3.448
 1856SOL    HW2 6915   3.220   0.285   3.529
 1856SOL     MW 6916   3.184   0.337   3.468
 1857SOL     OW 6917   2.503   1.736   3.346
 1857SOL    HW1 6918   2.420   1.721   3.391
 1857SOL    HW2 6919   2.562   1.669   3.381
 1857SOL     MW 6920   2.501   1.726   3.356
 1858SOL     OW 6921   3.560   0.443   2.971
 1858SOL    HW1 6922   3.493   0.476   3.031
 1858SOL    HW2 6923   3.603   0.521   2.937
 1858SOL     MW 6924   3.558   0.458   2.975
 1859SOL     OW 6925   3.738   1.163   2.941
 1859SOL    HW1 6926   3.731   1.103   2.866
 1859SOL    HW2 6927   3.664   1.223   2.930
 1859SOL     MW 6928   3.728   1.163   2.930
 1860SOL     OW 6929   3.203   0.520   3.138
 1860SOL    HW1 6930   3.224   0.521   3.045
 1860SOL    HW2 6931   3.248   0.442   3.171
 1860SOL     MW 6932   3.210   0.510   3.130
 1861SOL     OW 6933   3.696   0.651   3.680
 1861SOL    HW1 6934   3.733   0.596   3.749
 1861SOL    HW2 6935   3.721   0.608   3.598
 1861SOL     MW 6936   3.703   0.639   3.679
 1862SOL     OW 6937   3.243   0.949   3.731
 1862SOL    HW1 6938   3.309   0.897   3.685
 1862SOL    HW2 6939   3.263   0.936   3.824
 1862SOL     MW 6940   3.254   0.940   3.738
 1863SOL     OW 6941   3.254   0.810   2.358
 1863SOL    HW1 6942   3.169   0.780   2.328
 1863SOL    HW2 6943   3.246   0.817   2.453
 1863SOL     MW 6944   3.242   0.808   2.367
 1864SOL     OW 6945   2.330   1.273   3.089
 1864SOL    HW1 6946   2.342   1.300   3.180
 1864SOL    HW2 6947   2.311   1.354   3.042
 1864SOL     MW 6948   2.329   1.288   3.094
 1865SOL     OW 6949   2.614   0.253   2.912
 1865SOL    HW1 6950   2.587   0.255   3.003
 1865SOL    HW2 6951   2.544   0.205   2.867
 1865SOL     MW 6952   2.602   0.249   2.919
 1866SOL     OW 6953   2.468   1.745   3.074
 1866SOL    HW1 6954   2.520   1.822   3.051
 1866SOL    HW2 6955   2.477   1.737   3.169
 1866SOL     MW 6956   2.477   1.752   3.085
 1867SOL     OW 6957   3.435   1.593   3.407
 1867SOL    HW1 6958   3.477   1.578   3.492
 1867SOL    HW2 6959   3.426   1.506   3.369
 1867SOL     MW 6960   3.439   1.581   3.414
 1868SOL     OW 6961   2.458   1.339   2.041
 1868SOL    HW1 6962   2.473   1.315   2.133
 1868SOL    HW2 6963   2.366   1.317   2.025
 1868SOL     MW 6964   2.448   1.332   2.051
 1869SOL     OW 6965   2.866   0.345   2.826
 1869SOL    HW1 6966   2.796   0.297   2.871
 1869SOL    HW2 6967   2.898   0.408   2.890
 1869SOL     MW 6968   2.861   0.347   2.840
 1870SOL     OW 6969   2.517   0.781   3.446
 1870SOL    HW1 6970   2.510   0.876   3.434
 1870SOL    HW2 6971   2.526   0.770   3.541
 1870SOL     MW 6972   2.518   0.793   3.456
 1871SOL     OW 6973   2.238   1.296   3.704
 1871SOL    HW1 6974   2.310   1.298   3.641
 1871SOL    HW2 6975   2.208   1.205   3.703
 1871SOL     MW 6976   2.243   1.285   3.696
 1872SOL     OW 6977   3.522   1.589   3.655
 1872SOL    HW1 6978   3.495   1.586   3.746
 1872SOL    HW2 6979   3.618   1.593   3.658
 1872SOL     MW 6980   3.532   1.589   3.667
 1873SOL     OW 6981   1.888   1.786   3.711
 1873SOL    HW1 6982   1.938   1.764   3.633
 1873SOL    HW2 6983   1.896   1.881   3.719
 1873SOL     MW 6984   1.896   1.795   3.702
 1874SOL     OW 6985   2.649   1.544   2.715
 1874SOL    HW1 6986   2.577   1.481   2.728
 1874SOL    HW2 6987   2.610   1.629   2.733
 1874SOL     MW 6988   2.633   1.547   2.718
 1875SOL     OW 6989   2.969   0.392   2.363
 1875SOL    HW1 6990   2.991   0.329   2.295
 1875SOL    HW2 6991   2.874   0.384   2.374
 1875SOL     MW 6992   2.959   0.383   2.355
 1876SOL     OW 6993   3.623   1.456   2.395
 1876SOL    HW1 6994   3.593   1.389   2.456
 1876SOL    HW2 6995   3.717   1.462   2.409
 1876SOL     MW 6996   3.631   1.448   2.405
 1877SOL     OW 6997   2.841   0.053   2.378
 1877SOL    HW1 6998   2.878   0.112   2.443
 1877SOL    HW2 6999   2.818   0.109   2.304
 1877SOL     MW 7000   2.842   0.068   2.377
 1878SOL     OW 7001   3.694   0.935   2.800
 1878SOL    HW1 7002   3.685   0.967   2.711
 1878SOL    HW2 7003   3.647   0.851   2.800
 1878SOL     MW 7004   3.687   0.928   2.790
 1879SOL     OW 7005   3.606   0.866   2.501
 1879SOL    HW1 7006   3.700   0.855   2.489
 1879SOL    HW2 7007   3.582   0.938   2.442
 1879SOL     MW 7008   3.616   0.874   2.492
 1880SOL     OW 7009   2.262   0.744   2.274
 1880SOL    HW1 7010   2.262   0.839   2.259
 1880SOL    HW2 7011   2.339   0.728   2.328
 1880SOL     MW 7012   2.272   0.755   2.279
 1881SOL     OW 7013   3.038   0.603   3.338
 1881SOL    HW1 7014   3.074   0.576   3.254
 1881SOL    HW2 7015   2.951   0.637   3.317
 1881SOL     MW 7016   3.032   0.604   3.325
 1882SOL     OW 7017   2.021   0.475   2.563
 1882SOL    HW1 7018   2.083   0.482   2.636
 1882SOL    HW2 7019   2.021   0.382   2.540
 1882SOL     MW 7020   2.029   0.464   2.570
 1883SOL     OW 7021   2.703   0.736   3.047
 1883SOL    HW1 7022   2.661   0.654   3.023
 1883SOL    HW2 7023   2.704   0.735   3.143
 1883SOL     MW 7024   2.696   0.725   3.056
 1884SOL     OW 7025   3.374   1.869   3.446
 1884SOL    HW1 7026   3.377   1.775   3.429
 1884SOL    HW2 7027   3.397   1.877   3.538
 1884SOL     MW 7028   3.377   1.857   3.456
 1885SOL     OW 7029   1.890   1.047   2.021
 1885SOL    HW1 7030   1.859   1.112   2.084
 1885SOL    HW2 7031   1.839   0.969   2.040
 1885SOL     MW 7032   1.880   1.044   2.031
 1886SOL     OW 7033   3.302   0.059   2.769
 1886SOL    HW1 7034   3.390   0.068   2.806
 1886SOL    HW2 7035   3.312   0.000   2.695
 1886SOL     MW 7036   3.316   0.053   2.763
 1887SOL     OW 7037   3.334   0.798   2.613
 1887SOL    HW1 7038   3.414   0.813   2.562
 1887SOL    HW2 7039   3.327   0.703   2.619
 1887SOL     MW 7040   3.343   0.787   2.608
 1888SOL     OW 7041   2.474   1.847   1.963
 1888SOL    HW1 7042   2.379   1.847   1.955
 1888SOL    HW2 7043   2.490   1.793   2.041
 1888SOL     MW 7044   2.464   1.841   1.972
 1889SOL     OW 7045   2.784   0.724   3.310
 1889SOL    HW1 7046   2.853   0.791   3.307
 1889SOL    HW2 7047   2.717   0.762   3.366
 1889SOL     MW 7048   2.785   0.737   3.317
 1890SOL     OW 7049   3.319   0.667   1.879
 1890SOL    HW1 7050   3.247   0.643   1.821
 1890SOL    HW2 7051   3.385   0.704   1.821
 1890SOL     MW 7052   3.318   0.669   1.864
 1891SOL     OW 7053   2.453   1.399   2.559
 1891SOL    HW1 7054   2.518   1.332   2.580
 1891SOL    HW2 7055   2.505   1.476   2.536
 1891SOL     MW 7056   2.468   1.401   2.558
 1892SOL     OW 7057   2.714   0.564   2.689
 1892SOL    HW1 7058   2.654   0.582   2.761
 1892SOL    HW2 7059   2.748   0.476   2.708
 1892SOL     MW 7060   2.710   0.554   2.702
 1893SOL     OW 7061   3.655   0.063   3.358
 1893SOL    HW1 7062   3.576   0.109   3.386
 1893SOL    HW2 7063   3.690   0.117   3.287
 1893SOL     MW 7064   3.649   0.076   3.352
 1894SOL     OW 7065   2.939   1.147   2.708
 1894SOL    HW1 7066   3.031   1.128   2.726
 1894SOL    HW2 7067   2.912   1.077   2.648
 1894SOL     MW 7068   2.947   1.135   2.702
 1895SOL     OW 7069   3.132   1.333   3.072
 1895SOL    HW1 7070   3.143   1.300   3.161
 1895SOL    HW2 7071   3.051   1.292   3.041
 1895SOL     MW 7072   3.122   1.325   3.078
 1896SOL     OW 7073   2.145   0.691   2.842
 1896SOL    HW1 7074   2.095   0.690   2.923
 1896SOL    HW2 7075   2.165   0.783   2.826
 1896SOL     MW 7076   2.141   0.703   2.850
 1897SOL     OW 7077   3.212   1.455   3.604
 1897SOL    HW1 7078   3.212   1.549   3.620
 1897SOL    HW2 7079   3.257   1.445   3.520
 1897SOL     MW 7080   3.218   1.465   3.595
 1898SOL     OW 7081   3.451   0.173   2.165
 1898SOL    HW1 7082   3.444   0.177   2.260
 1898SOL    HW2 7083   3.463   0.264   2.138
 1898SOL     MW 7084   3.452   0.186   2.173
 1899SOL     OW 7085   2.740   0.736   2.279
 1899SOL    HW1 7086   2.720   0.722   2.186
 1899SOL    HW2 7087   2.833   0.715   2.286
 1899SOL     MW 7088   2.750   0.731   2.268
 1900SOL     OW 7089   2.067   0.359   3.583
 1900SOL    HW1 7090   2.024   0.418   3.520
 1900SOL    HW2 7091   2.135   0.414   3.623
 1900SOL     MW 7092   2.071   0.374   3.580
 1901SOL     OW 7093   2.723   1.694   2.317
 1901SOL    HW1 7094   2.781   1.765   2.344
 1901SOL    HW2 7095   2.746   1.622   2.375
 1901SOL     MW 7096   2.734   1.694   2.328
 1902SOL     OW 7097   3.518   0.156   2.907
 1902SOL    HW1 7098   3.563   0.074   2.926
 1902SOL    HW2 7099   3.538   0.212   2.983
 1902SOL     MW 7100   3.528   0.152   2.919
 1903SOL     OW 7101   3.603   1.192   2.626
 1903SOL    HW1 7102   3.582   1.138   2.549
 1903SOL    HW2 7103   3.699   1.190   2.630
 1903SOL     MW 7104   3.612   1.185   2.615
 1904SOL     OW 7105   2.295   1.337   3.369
 1904SOL    HW1 7106   2.216   1.287   3.392
 1904SOL    HW2 7107   2.365   1.296   3.419
 1904SOL     MW 7108   2.293   1.325   3.379
 1905SOL     OW 7109   2.179   0.126   2.052
 1905SOL    HW1 7110   2.108   0.181   2.020
 1905SOL    HW2 7111   2.221   0.092   1.973
 1905SOL     MW 7112   2.175   0.128   2.038
 1906SOL     OW 7113   1.935   0.225   1.901
 1906SOL    HW1 7114   1.902   0.304   1.945
 1906SOL    HW2 7115   1.990   0.258   1.830
 1906SOL     MW 7116   1.938   0.239   1.898
 1907SOL     OW 7117   1.969   1.482   2.090
 1907SOL    HW1 7118   1.986   1.566   2.132
 1907SOL    HW2 7119   2.004   1.491   2.002
 1907SOL     MW 7120   1.974   1.495   2.084
 1908SOL     OW 7121   3.604   0.839   3.993
 1908SOL    HW1 7122   3.645   0.781   4.058
 1908SOL    HW2 7123   3.511   0.831   4.010
 1908SOL     MW 7124   3.598   0.831   4.003
 1909SOL     OW 7125   2.398   1.022   4.222
 1909SOL    HW1 7126   2.488   0.997   4.206
 1909SOL    HW2 7127   2.394   1.115   4.199
 1909SOL     MW 7128   2.410   1.031   4.217
 1910SOL     OW 7129   3.514   1.725   4.364
 1910SOL    HW1 7130   3.526   1.671   4.442
 1910SOL    HW2 7131   3.551   1.673   4.293
 1910SOL     MW 7132   3.520   1.710   4.365
 1911SOL     OW 7133   3.450   1.165   4.969
 1911SOL    HW1 7134   3.371   1.130   4.927
 1911SOL    HW2 7135   3.477   1.237   4.913
 1911SOL     MW 7136   3.443   1.170   4.956
 1912SOL     OW 7137   2.682   0.478   4.235
 1912SOL    HW1 7138   2.657   0.566   4.263
 1912SOL    HW2 7139   2.679   0.481   4.139
 1912SOL     MW 7140   2.678   0.490   4.227
 1913SOL     OW 7141   2.124   0.506   4.163
 1913SOL    HW1 7142   2.156   0.594   4.145
 1913SOL    HW2 7143   2.112   0.504   4.258
 1913SOL     MW 7144   2.127   0.518   4.175
 1914SOL     OW 7145   2.523   0.261   4.250
 1914SOL    HW1 7146   2.581   0.337   4.252
 1914SOL    HW2 7147   2.458   0.282   4.183
 1914SOL     MW 7148   2.522   0.273   4.241
 1915SOL     OW 7149   2.635   1.529   5.328
 1915SOL    HW1 7150   2.719   1.555   5.367
 1915SOL    HW2 7151   2.659   1.473   5.254
 1915SOL     MW 7152   2.649   1.525   5.323
 1916SOL     OW 7153   2.387   0.692   4.416
 1916SOL    HW1 7154   2.372   0.612   4.467
 1916SOL    HW2 7155   2.469   0.727   4.450
 1916SOL     MW 7156   2.395   0.684   4.428
 1917SOL     OW 7157   2.529   0.518   4.793
 1917SOL    HW1 7158   2.435   0.514   4.811
 1917SOL    HW2 7159   2.559   0.427   4.802
 1917SOL     MW 7160   2.520   0.506   4.796
 1918SOL     OW 7161   2.275   0.932   4.697
 1918SOL    HW1 7162   2.230   0.939   4.613
 1918SOL    HW2 7163   2.255   1.015   4.741
 1918SOL     MW 7164   2.267   0.944   4.691
 1919SOL     OW 7165   1.972   1.778   4.572
 1919SOL    HW1 7166   2.061   1.770   4.607
 1919SOL    HW2 7167   1.936   1.690   4.577
 1919SOL     MW 7168   1.979   1.765   4.577
 1920SOL     OW 7169   3.237   1.170   3.941
 1920SOL    HW1 7170   3.155   1.206   3.907
 1920SOL    HW2 7171   3.305   1.213   3.890
 1920SOL     MW 7172   3.235   1.180   3.929
 1921SOL     OW 7173   2.798   0.949   4.417
 1921SOL    HW1 7174   2.712   0.936   4.457
 1921SOL    HW2 7175   2.851   0.876   4.449
 1921SOL     MW 7176   2.794   0.938   4.426
 1922SOL     OW 7177   2.789   1.311   4.134
 1922SOL    HW1 7178   2.766   1.373   4.202
 1922SOL    HW2 7179   2.746   1.229   4.160
 1922SOL     MW 7180   2.781   1.307   4.145
 1923SOL     OW 7181   3.662   0.312   4.590
 1923SOL    HW1 7182   3.599   0.292   4.659
 1923SOL    HW2 7183   3.652   0.241   4.527
 1923SOL     MW 7184   3.652   0.299   4.591
 1924SOL     OW 7185   2.121   1.245   4.139
 1924SOL    HW1 7186   2.069   1.313   4.095
 1924SOL    HW2 7187   2.118   1.171   4.079
 1924SOL     MW 7188   2.113   1.244   4.126
 1925SOL     OW 7189   2.783   1.708   3.917
 1925SOL    HW1 7190   2.738   1.724   4.000
 1925SOL    HW2 7191   2.714   1.673   3.859
 1925SOL     MW 7192   2.769   1.705   3.919
 1926SOL     OW 7193   3.463   1.084   4.242
 1926SOL    HW1 7194   3.373   1.084   4.277
 1926SOL    HW2 7195   3.456   1.130   4.159
 1926SOL     MW 7196   3.450   1.090   4.236
 1927SOL     OW 7197   2.004   1.599   4.866
 1927SOL    HW1 7198   1.987   1.545   4.943
 1927SOL    HW2 7199   1.992   1.689   4.896
 1927SOL     MW 7200   2.001   1.603   4.880
 1928SOL     OW 7201   3.370   1.062   4.634
 1928SOL    HW1 7202   3.373   0.996   4.565
 1928SOL    HW2 7203   3.455   1.105   4.630
 1928SOL     MW 7204   3.382   1.058   4.625
 1929SOL     OW 7205   2.990   0.665   4.203
 1929SOL    HW1 7206   3.016   0.689   4.114
 1929SOL    HW2 7207   2.972   0.572   4.199
 1929SOL     MW 7208   2.992   0.657   4.190
 1930SOL     OW 7209   3.655   1.285   4.054
 1930SOL    HW1 7210   3.611   1.326   4.129
 1930SOL    HW2 7211   3.712   1.353   4.019
 1930SOL     MW 7212   3.657   1.299   4.059
 1931SOL     OW 7213   2.311   1.701   4.372
 1931SOL    HW1 7214   2.343   1.789   4.350
 1931SOL    HW2 7215   2.264   1.673   4.294
 1931SOL     MW 7216   2.310   1.709   4.359
 1932SOL     OW 7217   3.695   0.063   4.421
 1932SOL    HW1 7218   3.749   0.014   4.483
 1932SOL    HW2 7219   3.638  -0.003   4.382
 1932SOL     MW 7220   3.695   0.047   4.423
 1933SOL     OW 7221   2.027   1.761   3.949
 1933SOL    HW1 7222   2.056   1.851   3.941
 1933SOL    HW2 7223   1.977   1.744   3.870
 1933SOL     MW 7224   2.025   1.769   3.938
 1934SOL     OW 7225   2.814   0.016   4.834
 1934SOL    HW1 7226   2.773   0.094   4.796
 1934SOL    HW2 7227   2.908   0.034   4.829
 1934SOL     MW 7228   2.820   0.028   4.829
 1935SOL     OW 7229   3.431   1.569   3.920
 1935SOL    HW1 7230   3.479   1.638   3.966
 1935SOL    HW2 7231   3.352   1.613   3.889
 1935SOL     MW 7232   3.426   1.583   3.923
 1936SOL     OW 7233   2.829   0.694   3.864
 1936SOL    HW1 7234   2.831   0.641   3.785
 1936SOL    HW2 7235   2.917   0.731   3.870
 1936SOL     MW 7236   2.841   0.693   3.853
 1937SOL     OW 7237   3.443   0.620   4.200
 1937SOL    HW1 7238   3.482   0.620   4.287
 1937SOL    HW2 7239   3.384   0.696   4.200
 1937SOL     MW 7240   3.440   0.631   4.211
 1938SOL     OW 7241   2.929   0.613   4.923
 1938SOL    HW1 7242   3.004   0.642   4.870
 1938SOL    HW2 7243   2.861   0.678   4.907
 1938SOL     MW 7244   2.930   0.625   4.913
 1939SOL     OW 7245   2.003   0.393   4.758
 1939SOL    HW1 7246   1.975   0.484   4.767
 1939SOL    HW2 7247   1.940   0.354   4.697
 1939SOL     MW 7248   1.990   0.399   4.752
 1940SOL     OW 7249   2.462   1.731   4.064
 1940SOL    HW1 7250   2.383   1.689   4.097
 1940SOL    HW2 7251   2.528   1.714   4.131
 1940SOL     MW 7252   2.461   1.723   4.077
 1941SOL     OW 7253   3.724   0.886   4.963
 1941SOL    HW1 7254   3.740   0.924   4.876
 1941SOL    HW2 7255   3.758   0.952   5.024
 1941SOL     MW 7256   3.731   0.899   4.959
 1942SOL     OW 7257   3.516   1.595   4.632
 1942SOL    HW1 7258   3.545   1.662   4.693
 1942SOL    HW2 7259   3.497   1.519   4.687
 1942SOL     MW 7260   3.518   1.595   4.647
 1943SOL     OW 7261   1.987   0.668   4.928
 1943SOL    HW1 7262   2.049   0.698   4.994
 1943SOL    HW2 7263   1.921   0.737   4.922
 1943SOL     MW 7264   1.986   0.681   4.935
 1944SOL     OW 7265   3.403   1.336   3.781
 1944SOL    HW1 7266   3.350   1.385   3.717
 1944SOL    HW2 7267   3.434   1.402   3.842
 1944SOL     MW 7268   3.401   1.350   3.779
 1945SOL     OW 7269   2.628   0.225   3.836
 1945SOL    HW1 7270   2.576   0.145   3.824
 1945SOL    HW2 7271   2.715   0.202   3.804
 1945SOL     MW 7272   2.631   0.211   3.830
 1946SOL     OW 7273   1.989   0.865   4.293
 1946SOL    HW1 7274   2.080   0.880   4.320
 1946SOL    HW2 7275   1.992   0.786   4.239
 1946SOL     MW 7276   2.001   0.857   4.291
 1947SOL     OW 7277   2.616   1.797   4.667
 1947SOL    HW1 7278   2.705   1.812   4.697
 1947SOL    HW2 7279   2.611   1.844   4.583
 1947SOL     MW 7280   2.626   1.805   4.660
 1948SOL     OW 7281   2.830   1.520   4.367
 1948SOL    HW1 7282   2.913   1.474   4.351
 1948SOL    HW2 7283   2.820   1.519   4.463
 1948SOL     MW 7284   2.840   1.513   4.377
 1949SOL     OW 7285   2.563   1.577   3.772
 1949SOL    HW1 7286   2.503   1.646   3.742
 1949SOL    HW2 7287   2.508   1.519   3.825
 1949SOL     MW 7288   2.547   1.579   3.774
 1950SOL     OW 7289   3.319   0.522   4.502
 1950SOL    HW1 7290   3.264   0.443   4.501
 1950SOL    HW2 7291   3.301   0.563   4.586
 1950SOL     MW 7292   3.309   0.517   4.511
 1951SOL     OW 7293   2.938   0.726   4.459
 1951SOL    HW1 7294   2.875   0.658   4.483
 1951SOL    HW2 7295   2.958   0.707   4.367
 1951SOL     MW 7296   2.932   0.713   4.451
 1952SOL     OW 7297   2.194   1.621   4.161
 1952SOL    HW1 7298   2.155   1.668   4.087
 1952SOL    HW2 7299   2.128   1.556   4.186
 1952SOL     MW 7300   2.181   1.619   4.155
 1953SOL     OW 7301   2.686   1.030   4.185
 1953SOL    HW1 7302   2.688   1.004   4.092
 1953SOL    HW2 7303   2.744   0.967   4.228
 1953SOL     MW 7304   2.694   1.019   4.179
 1954SOL     OW 7305   3.243   1.798   4.387
 1954SOL    HW1 7306   3.186   1.751   4.326
 1954SOL    HW2 7307   3.329   1.759   4.374
 1954SOL     MW 7308   3.246   1.789   4.377
 1955SOL     OW 7309   3.176   0.378   3.853
 1955SOL    HW1 7310   3.149   0.444   3.789
 1955SOL    HW2 7311   3.246   0.421   3.903
 1955SOL     MW 7312   3.181   0.391   3.850
 1956SOL     OW 7313   3.349   0.934   3.995
 1956SOL    HW1 7314   3.316   1.023   3.985
 1956SOL    HW2 7315   3.314   0.905   4.080
 1956SOL     MW 7316   3.339   0.943   4.006
 1957SOL     OW 7317   2.279   1.521   4.824
 1957SOL    HW1 7318   2.324   1.583   4.881
 1957SOL    HW2 7319   2.186   1.540   4.837
 1957SOL     MW 7320   2.272   1.531   4.831
 1958SOL     OW 7321   2.996   0.945   4.030
 1958SOL    HW1 7322   2.906   0.966   4.005
 1958SOL    HW2 7323   3.023   1.018   4.086
 1958SOL     MW 7324   2.988   0.957   4.033
 1959SOL     OW 7325   2.978   1.694   5.095
 1959SOL    HW1 7326   2.898   1.679   5.045
 1959SOL    HW2 7327   2.985   1.789   5.102
 1959SOL     MW 7328   2.969   1.705   5.089
 1960SOL     OW 7329   3.092   1.659   4.585
 1960SOL    HW1 7330   3.139   1.732   4.544
 1960SOL    HW2 7331   3.013   1.698   4.621
 1960SOL     MW 7332   3.087   1.674   4.584
 1961SOL     OW 7333   3.482   1.336   4.722
 1961SOL    HW1 7334   3.517   1.318   4.635
 1961SOL    HW2 7335   3.387   1.337   4.709
 1961SOL     MW 7336   3.474   1.333   4.709
 1962SOL     OW 7337   2.302   0.126   4.393
 1962SOL    HW1 7338   2.352   0.169   4.324
 1962SOL    HW2 7339   2.217   0.170   4.393
 1962SOL     MW 7340   2.299   0.139   4.384
 1963SOL     OW 7341   3.111   0.733   3.939
 1963SOL    HW1 7342   3.158   0.751   3.858
 1963SOL    HW2 7343   3.077   0.817   3.967
 1963SOL     MW 7344   3.113   0.747   3.932
 1964SOL     OW 7345   2.224   0.911   4.433
 1964SOL    HW1 7346   2.282   0.967   4.381
 1964SOL    HW2 7347   2.268   0.826   4.435
 1964SOL     MW 7348   2.237   0.908   4.426
 1965SOL     OW 7349   2.950   0.225   4.429
 1965SOL    HW1 7350   2.970   0.300   4.373
 1965SOL    HW2 7351   2.930   0.264   4.514
 1965SOL     MW 7352   2.951   0.241   4.433
 1966SOL     OW 7353   1.931   1.511   4.605
 1966SOL    HW1 7354   1.963   1.515   4.696
 1966SOL    HW2 7355   1.836   1.519   4.613
 1966SOL     MW 7356   1.923   1.514   4.618
 1967SOL     OW 7357   1.886   0.637   4.152
 1967SOL    HW1 7358   1.826   0.609   4.222
 1967SOL    HW2 7359   1.960   0.577   4.158
 1967SOL     MW 7360   1.888   0.626   4.161
 1968SOL     OW 7361   3.054   1.368   4.312
 1968SOL    HW1 7362   3.077   1.319   4.390
 1968SOL    HW2 7363   3.135   1.410   4.284
 1968SOL     MW 7364   3.067   1.368   4.319
 1969SOL     OW 7365   2.312   0.376   5.041
 1969SOL    HW1 7366   2.345   0.457   5.081
 1969SOL    HW2 7367   2.285   0.402   4.953
 1969SOL     MW 7368   2.311   0.390   5.035
 1970SOL     OW 7369   2.266   0.343   4.777
 1970SOL    HW1 7370   2.296   0.257   4.748
 1970SOL    HW2 7371   2.171   0.336   4.780
 1970SOL     MW 7372   2.258   0.332   4.775
 1971SOL     OW 7373   2.409   0.121   4.668
 1971SOL    HW1 7374   2.419   0.030   4.694
 1971SOL    HW2 7375   2.365   0.117   4.583
 1971SOL     MW 7376   2.405   0.109   4.660
 1972SOL     OW 7377   3.560   0.443   4.839
 1972SOL    HW1 7378   3.493   0.476   4.899
 1972SOL    HW2 7379   3.603   0.521   4.805
 1972SOL     MW 7380   3.558   0.458   4.843
 1973SOL     OW 7381   3.738   1.163   4.809
 1973SOL    HW1 7382   3.731   1.103   4.734
 1973SOL    HW2 7383   3.664   1.223   4.798
 1973SOL     MW 7384   3.728   1.163   4.798
 1974SOL     OW 7385   3.120   1.025   4.727
 1974SOL    HW1 7386   3.134   0.997   4.818
 1974SOL    HW2 7387   3.206   1.056   4.699
 1974SOL     MW 7388   3.133   1.026   4.736
 1975SOL     OW 7389   3.194   0.035   3.948
 1975SOL    HW1 7390   3.268   0.079   3.991
 1975SOL    HW2 7391   3.118   0.089   3.970
 1975SOL     MW 7392   3.194   0.047   3.956
 1976SOL     OW 7393   3.254   0.810   4.226
 1976SOL    HW1 7394   3.169   0.780   4.196
 1976SOL    HW2 7395   3.246   0.817   4.321
 1976SOL     MW 7396   3.242   0.808   4.235
 1977SOL     OW 7397   2.614   0.253   4.780
 1977SOL    HW1 7398   2.587   0.255   4.871
 1977SOL    HW2 7399   2.544   0.205   4.735
 1977SOL     MW 7400   2.602   0.249   4.787
 1978SOL     OW 7401   2.627   0.476   3.952
 1978SOL    HW1 7402   2.700   0.525   3.915
 1978SOL    HW2 7403   2.643   0.385   3.926
 1978SOL     MW 7404   2.639   0.471   3.945
 1979SOL     OW 7405   2.458   1.339   3.909
 1979SOL    HW1 7406   2.473   1.315   4.001
 1979SOL    HW2 7407   2.366   1.317   3.893
 1979SOL     MW 7408   2.448   1.332   3.919
 1980SOL     OW 7409   2.997   1.570   4.061
 1980SOL    HW1 7410   3.005   1.488   4.012
 1980SOL    HW2 7411   2.916   1.609   4.028
 1980SOL     MW 7412   2.987   1.565   4.051
 1981SOL     OW 7413   2.256   1.728   4.630
 1981SOL    HW1 7414   2.260   1.639   4.665
 1981SOL    HW2 7415   2.282   1.719   4.539
 1981SOL     MW 7416   2.259   1.716   4.622
 1982SOL     OW 7417   2.873   1.206   4.873
 1982SOL    HW1 7418   2.805   1.140   4.889
 1982SOL    HW2 7419   2.891   1.200   4.780
 1982SOL     MW 7420   2.866   1.197   4.864
 1983SOL     OW 7421   2.866   0.345   4.694
 1983SOL    HW1 7422   2.796   0.297   4.739
 1983SOL    HW2 7423   2.898   0.408   4.758
 1983SOL     MW 7424   2.861   0.347   4.708
 1984SOL     OW 7425   2.333   0.451   4.507
 1984SOL    HW1 7426   2.404   0.399   4.470
 1984SOL    HW2 7427   2.319   0.416   4.594
 1984SOL     MW 7428   2.341   0.440   4.514
 1985SOL     OW 7429   2.054   0.082   4.163
 1985SOL    HW1 7430   2.125   0.103   4.102
 1985SOL    HW2 7431   2.008   0.010   4.121
 1985SOL     MW 7432   2.058   0.076   4.149
 1986SOL     OW 7433   2.841   0.053   4.246
 1986SOL    HW1 7434   2.878   0.112   4.311
 1986SOL    HW2 7435   2.818   0.109   4.172
 1986SOL     MW 7436   2.842   0.068   4.245
 1987SOL     OW 7437   3.694   0.935   4.668
 1987SOL    HW1 7438   3.685   0.967   4.579
 1987SOL    HW2 7439   3.647   0.851   4.668
 1987SOL     MW 7440   3.687   0.928   4.658
 1988SOL     OW 7441   2.070   0.775   5.247
 1988SOL    HW1 7442   2.091   0.844   5.185
 1988SOL    HW2 7443   2.150   0.722   5.252
 1988SOL     MW 7444   2.083   0.776   5.241
 1989SOL     OW 7445   2.262   0.744   4.142
 1989SOL    HW1 7446   2.262   0.839   4.127
 1989SOL    HW2 7447   2.339   0.728   4.196
 1989SOL     MW 7448   2.272   0.755   4.147
 1990SOL     OW 7449   2.021   0.475   4.431
 1990SOL    HW1 7450   2.083   0.482   4.504
 1990SOL    HW2 7451   2.021   0.382   4.408
 1990SOL     MW 7452   2.029   0.464   4.438
 1991SOL     OW 7453   2.703   0.736   4.915
 1991SOL    HW1 7454   2.661   0.654   4.891
 1991SOL    HW2 7455   2.704   0.735   5.011
 1991SOL     MW 7456   2.696   0.725   4.924
 1992SOL     OW 7457   3.334   0.798   4.481
 1992SOL    HW1 7458   3.414   0.813   4.430
 1992SOL    HW2 7459   3.327   0.703   4.487
 1992SOL     MW 7460   3.343   0.787   4.476
 1993SOL     OW 7461   2.474   1.847   3.831
 1993SOL    HW1 7462   2.379   1.847   3.823
 1993SOL    HW2 7463   2.490   1.793   3.909
 1993SOL     MW 7464   2.464   1.841   3.840
 1994SOL     OW 7465   2.714   0.564   4.557
 1994SOL    HW1 7466   2.654   0.582   4.629
 1994SOL    HW2 7467   2.748   0.476   4.576
 1994SOL     MW 7468   2.710   0.554   4.570
 1995SOL     OW 7469   2.939   1.147   4.576
 1995SOL    HW1 7470   3.031   1.128   4.594
 1995SOL    HW2 7471   2.912   1.077   4.516
 1995SOL     MW 7472   2.947   1.135   4.570
 1996SOL     OW 7473   2.732   0.967   3.931
 1996SOL    HW1 7474   2.718   0.879   3.896
 1996SOL    HW2 7475   2.683   1.024   3.872
 1996SOL     MW 7476   2.724   0.962   3.919
 1997SOL     OW 7477   2.145   0.691   4.710
 1997SOL    HW1 7478   2.095   0.690   4.791
 1997SOL    HW2 7479   2.165   0.783   4.694
 1997SOL     MW 7480   2.141   0.703   4.718
 1998SOL     OW 7481   3.451   0.173   4.033
 1998SOL    HW1 7482   3.444   0.177   4.128
 1998SOL    HW2 7483   3.463   0.264   4.006
 1998SOL     MW 7484   3.452   0.186   4.041
 1999SOL     OW 7485   2.740   0.736   4.147
 1999SOL    HW1 7486   2.720   0.722   4.054
 1999SOL    HW2 7487   2.833   0.715   4.154
 1999SOL     MW 7488   2.750   0.731   4.136
 2000SOL     OW 7489   3.603   1.192   4.494
 2000SOL    HW1 7490   3.582   1.138   4.417
 2000SOL    HW2 7491   3.699   1.190   4.498
 2000SOL     MW 7492   3.612   1.185   4.483
 2001SOL     OW 7493   2.179   0.126   3.920
 2001SOL    HW1 7494   2.108   0.181   3.888
 2001SOL    HW2 7495   2.221   0.092   3.841
 2001SOL     MW 7496   2.175   0.128   3.906
 2002SOL     OW 7497   3.303   0.623   4.756
 2002SOL    HW1 7498   3.226   0.669   4.722
 2002SOL    HW2 7499   3.360   0.692   4.790
 2002SOL     MW 7500   3.300   0.638   4.756
 2003SOL     OW 7501   1.935   0.225   3.769
 2003SOL    HW1 7502   1.902   0.304   3.813
 2003SOL    HW2 7503   1.990   0.258   3.698
 2003SOL     MW 7504   1.938   0.239   3.766
 2004SOL     OW 7505   1.969   1.482   3.958
 2004SOL    HW1 7506   1.986   1.566   4.000
 2004SOL    HW2 7507   2.004   1.491   3.870
 2004SOL     MW 7508   1.974   1.495   3.952
 2005SOL     OW 7509   3.241   1.571   4.175
 2005SOL    HW1 7510   3.304   1.561   4.104
 2005SOL    HW2 7511   3.158   1.591   4.130
 2005SOL     MW 7512   3.238   1.572   4.160
 2006SOL     OW 7513   3.604   2.707   0.257
 2006SOL    HW1 7514   3.645   2.649   0.322
 2006SOL    HW2 7515   3.511   2.699   0.274
 2006SOL     MW 7516   3.598   2.699   0.267
 2007SOL     OW 7517   2.398   2.890   0.486
 2007SOL    HW1 7518   2.488   2.865   0.470
 2007SOL    HW2 7519   2.394   2.983   0.463
 2007SOL     MW 7520   2.410   2.899   0.481
 2008SOL     OW 7521   3.514   3.593   0.628
 2008SOL    HW1 7522   3.526   3.539   0.706
 2008SOL    HW2 7523   3.551   3.541   0.557
 2008SOL     MW 7524   3.520   3.578   0.629
 2009SOL     OW 7525   2.893   3.478   1.629
 2009SOL    HW1 7526   2.934   3.514   1.550
 2009SOL    HW2 7527   2.928   3.389   1.636
 2009SOL     MW 7528   2.904   3.471   1.620
 2010SOL     OW 7529   3.450   3.033   1.233
 2010SOL    HW1 7530   3.371   2.998   1.191
 2010SOL    HW2 7531   3.477   3.105   1.177
 2010SOL     MW 7532   3.443   3.038   1.220
 2011SOL     OW 7533   2.682   2.346   0.499
 2011SOL    HW1 7534   2.657   2.434   0.527
 2011SOL    HW2 7535   2.679   2.349   0.403
 2011SOL     MW 7536   2.678   2.358   0.491
 2012SOL     OW 7537   2.523   2.129   0.514
 2012SOL    HW1 7538   2.581   2.205   0.516
 2012SOL    HW2 7539   2.458   2.150   0.447
 2012SOL     MW 7540   2.522   2.141   0.505
 2013SOL     OW 7541   2.610   3.056   0.689
 2013SOL    HW1 7542   2.690   3.059   0.741
 2013SOL    HW2 7543   2.638   3.023   0.603
 2013SOL     MW 7544   2.624   3.052   0.684
 2014SOL     OW 7545   2.387   2.560   0.680
 2014SOL    HW1 7546   2.372   2.480   0.731
 2014SOL    HW2 7547   2.469   2.595   0.714
 2014SOL     MW 7548   2.395   2.552   0.692
 2015SOL     OW 7549   2.275   2.800   0.961
 2015SOL    HW1 7550   2.230   2.807   0.877
 2015SOL    HW2 7551   2.255   2.883   1.005
 2015SOL     MW 7552   2.267   2.812   0.955
 2016SOL     OW 7553   1.972   3.646   0.836
 2016SOL    HW1 7554   2.061   3.638   0.871
 2016SOL    HW2 7555   1.936   3.558   0.841
 2016SOL     MW 7556   1.979   3.633   0.841
 2017SOL     OW 7557   2.206   3.469   1.466
 2017SOL    HW1 7558   2.114   3.445   1.451
 2017SOL    HW2 7559   2.250   3.386   1.483
 2017SOL     MW 7560   2.200   3.454   1.465
 2018SOL     OW 7561   2.789   3.179   0.398
 2018SOL    HW1 7562   2.766   3.241   0.466
 2018SOL    HW2 7563   2.746   3.097   0.424
 2018SOL     MW 7564   2.781   3.175   0.409
 2019SOL     OW 7565   3.662   2.180   0.854
 2019SOL    HW1 7566   3.599   2.160   0.923
 2019SOL    HW2 7567   3.652   2.109   0.791
 2019SOL     MW 7568   3.652   2.167   0.855
 2020SOL     OW 7569   2.121   3.113   0.403
 2020SOL    HW1 7570   2.069   3.181   0.359
 2020SOL    HW2 7571   2.118   3.039   0.343
 2020SOL     MW 7572   2.113   3.112   0.390
 2021SOL     OW 7573   2.783   3.576   0.181
 2021SOL    HW1 7574   2.738   3.592   0.264
 2021SOL    HW2 7575   2.714   3.541   0.123
 2021SOL     MW 7576   2.769   3.573   0.183
 2022SOL     OW 7577   3.263   2.587   1.578
 2022SOL    HW1 7578   3.332   2.525   1.555
 2022SOL    HW2 7579   3.188   2.561   1.525
 2022SOL     MW 7580   3.263   2.574   1.569
 2023SOL     OW 7581   2.004   3.467   1.130
 2023SOL    HW1 7582   1.987   3.413   1.207
 2023SOL    HW2 7583   1.992   3.557   1.160
 2023SOL     MW 7584   2.001   3.471   1.144
 2024SOL     OW 7585   2.999   2.974   1.570
 2024SOL    HW1 7586   2.984   3.067   1.555
 2024SOL    HW2 7587   3.094   2.964   1.570
 2024SOL     MW 7588   3.008   2.984   1.567
 2025SOL     OW 7589   2.795   2.398   1.771
 2025SOL    HW1 7590   2.885   2.399   1.738
 2025SOL    HW2 7591   2.754   2.323   1.729
 2025SOL     MW 7592   2.801   2.388   1.762
 2026SOL     OW 7593   3.370   2.930   0.898
 2026SOL    HW1 7594   3.373   2.864   0.829
 2026SOL    HW2 7595   3.455   2.973   0.894
 2026SOL     MW 7596   3.382   2.926   0.889
 2027SOL     OW 7597   2.990   2.533   0.467
 2027SOL    HW1 7598   3.016   2.557   0.378
 2027SOL    HW2 7599   2.972   2.440   0.463
 2027SOL     MW 7600   2.992   2.525   0.454
 2028SOL     OW 7601   2.311   3.569   0.636
 2028SOL    HW1 7602   2.343   3.657   0.614
 2028SOL    HW2 7603   2.264   3.541   0.558
 2028SOL     MW 7604   2.310   3.577   0.623
 2029SOL     OW 7605   2.027   3.629   0.213
 2029SOL    HW1 7606   2.056   3.719   0.205
 2029SOL    HW2 7607   1.977   3.612   0.134
 2029SOL     MW 7608   2.025   3.637   0.202
 2030SOL     OW 7609   2.814   1.884   1.098
 2030SOL    HW1 7610   2.773   1.962   1.060
 2030SOL    HW2 7611   2.908   1.902   1.093
 2030SOL     MW 7612   2.820   1.896   1.093
 2031SOL     OW 7613   2.829   2.562   0.128
 2031SOL    HW1 7614   2.831   2.509   0.049
 2031SOL    HW2 7615   2.917   2.599   0.134
 2031SOL     MW 7616   2.841   2.561   0.117
 2032SOL     OW 7617   3.443   2.488   0.464
 2032SOL    HW1 7618   3.482   2.488   0.551
 2032SOL    HW2 7619   3.384   2.564   0.464
 2032SOL     MW 7620   3.440   2.499   0.475
 2033SOL     OW 7621   2.760   2.855   1.593
 2033SOL    HW1 7622   2.737   2.835   1.683
 2033SOL    HW2 7623   2.845   2.899   1.598
 2033SOL     MW 7624   2.767   2.858   1.605
 2034SOL     OW 7625   2.840   1.992   1.353
 2034SOL    HW1 7626   2.846   1.954   1.266
 2034SOL    HW2 7627   2.829   2.086   1.338
 2034SOL     MW 7628   2.841   2.000   1.341
 2035SOL     OW 7629   2.929   2.481   1.187
 2035SOL    HW1 7630   3.004   2.510   1.134
 2035SOL    HW2 7631   2.861   2.546   1.171
 2035SOL     MW 7632   2.930   2.493   1.177
 2036SOL     OW 7633   3.621   3.543   1.368
 2036SOL    HW1 7634   3.549   3.505   1.419
 2036SOL    HW2 7635   3.638   3.628   1.409
 2036SOL     MW 7636   3.615   3.548   1.380
 2037SOL     OW 7637   2.926   2.187   1.570
 2037SOL    HW1 7638   2.892   2.226   1.489
 2037SOL    HW2 7639   2.904   2.095   1.563
 2037SOL     MW 7640   2.919   2.180   1.560
 2038SOL     OW 7641   3.335   3.001   1.646
 2038SOL    HW1 7642   3.417   3.042   1.676
 2038SOL    HW2 7643   3.298   2.963   1.726
 2038SOL     MW 7644   3.341   3.002   1.661
 2039SOL     OW 7645   3.630   2.374   0.630
 2039SOL    HW1 7646   3.719   2.343   0.647
 2039SOL    HW2 7647   3.573   2.314   0.678
 2039SOL     MW 7648   3.633   2.362   0.639
 2040SOL     OW 7649   2.003   2.261   1.022
 2040SOL    HW1 7650   1.975   2.352   1.031
 2040SOL    HW2 7651   1.940   2.222   0.961
 2040SOL     MW 7652   1.990   2.267   1.016
 2041SOL     OW 7653   2.462   3.599   0.328
 2041SOL    HW1 7654   2.383   3.557   0.361
 2041SOL    HW2 7655   2.528   3.582   0.395
 2041SOL     MW 7656   2.461   3.591   0.341
 2042SOL     OW 7657   3.590   3.119   1.725
 2042SOL    HW1 7658   3.640   3.045   1.757
 2042SOL    HW2 7659   3.536   3.146   1.800
 2042SOL     MW 7660   3.590   3.113   1.738
 2043SOL     OW 7661   2.598   3.014   0.035
 2043SOL    HW1 7662   2.520   2.960   0.022
 2043SOL    HW2 7663   2.569   3.087   0.088
 2043SOL     MW 7664   2.584   3.016   0.040
 2044SOL     OW 7665   3.516   3.463   0.896
 2044SOL    HW1 7666   3.545   3.530   0.957
 2044SOL    HW2 7667   3.497   3.387   0.951
 2044SOL     MW 7668   3.518   3.463   0.911
 2045SOL     OW 7669   2.628   2.093   0.100
 2045SOL    HW1 7670   2.576   2.013   0.088
 2045SOL    HW2 7671   2.715   2.070   0.068
 2045SOL     MW 7672   2.631   2.079   0.094
 2046SOL     OW 7673   2.082   3.645   1.644
 2046SOL    HW1 7674   2.056   3.713   1.582
 2046SOL    HW2 7675   2.130   3.582   1.592
 2046SOL     MW 7676   2.084   3.645   1.630
 2047SOL     OW 7677   2.674   2.868   1.139
 2047SOL    HW1 7678   2.702   2.777   1.151
 2047SOL    HW2 7679   2.603   2.862   1.075
 2047SOL     MW 7680   2.667   2.856   1.134
 2048SOL     OW 7681   1.989   2.733   0.557
 2048SOL    HW1 7682   2.080   2.748   0.584
 2048SOL    HW2 7683   1.992   2.654   0.503
 2048SOL     MW 7684   2.001   2.725   0.555
 2049SOL     OW 7685   2.611   1.991   1.518
 2049SOL    HW1 7686   2.588   1.899   1.520
 2049SOL    HW2 7687   2.697   1.993   1.475
 2049SOL     MW 7688   2.618   1.981   1.514
 2050SOL     OW 7689   2.295   2.515   1.557
 2050SOL    HW1 7690   2.375   2.565   1.543
 2050SOL    HW2 7691   2.286   2.509   1.652
 2050SOL     MW 7692   2.304   2.521   1.567
 2051SOL     OW 7693   2.616   3.665   0.931
 2051SOL    HW1 7694   2.705   3.680   0.961
 2051SOL    HW2 7695   2.611   3.712   0.847
 2051SOL     MW 7696   2.626   3.673   0.924
 2052SOL     OW 7697   1.997   3.345   0.596
 2052SOL    HW1 7698   1.969   3.384   0.678
 2052SOL    HW2 7699   2.017   3.254   0.618
 2052SOL     MW 7700   1.995   3.337   0.609
 2053SOL     OW 7701   2.830   3.388   0.631
 2053SOL    HW1 7702   2.913   3.342   0.615
 2053SOL    HW2 7703   2.820   3.387   0.727
 2053SOL     MW 7704   2.840   3.381   0.641
 2054SOL     OW 7705   3.513   2.712   1.825
 2054SOL    HW1 7706   3.568   2.636   1.806
 2054SOL    HW2 7707   3.515   2.720   1.920
 2054SOL     MW 7708   3.521   2.703   1.833
 2055SOL     OW 7709   2.563   3.445   0.036
 2055SOL    HW1 7710   2.503   3.514   0.006
 2055SOL    HW2 7711   2.508   3.387   0.089
 2055SOL     MW 7712   2.547   3.447   0.038
 2056SOL     OW 7713   3.001   2.090   0.259
 2056SOL    HW1 7714   2.934   2.066   0.196
 2056SOL    HW2 7715   3.066   2.139   0.208
 2056SOL     MW 7716   3.001   2.092   0.244
 2057SOL     OW 7717   2.808   2.274   1.344
 2057SOL    HW1 7718   2.727   2.315   1.372
 2057SOL    HW2 7719   2.855   2.342   1.296
 2057SOL     MW 7720   2.803   2.289   1.342
 2058SOL     OW 7721   2.520   2.807   0.771
 2058SOL    HW1 7722   2.431   2.798   0.804
 2058SOL    HW2 7723   2.524   2.897   0.739
 2058SOL     MW 7724   2.509   2.818   0.771
 2059SOL     OW 7725   3.319   2.390   0.766
 2059SOL    HW1 7726   3.264   2.311   0.765
 2059SOL    HW2 7727   3.301   2.431   0.850
 2059SOL     MW 7728   3.309   2.385   0.775
 2060SOL     OW 7729   2.290   2.077   1.583
 2060SOL    HW1 7730   2.211   2.095   1.635
 2060SOL    HW2 7731   2.285   2.139   1.510
 2060SOL     MW 7732   2.280   2.087   1.580
 2061SOL     OW 7733   2.938   2.594   0.723
 2061SOL    HW1 7734   2.875   2.526   0.747
 2061SOL    HW2 7735   2.958   2.575   0.631
 2061SOL     MW 7736   2.932   2.581   0.715
 2062SOL     OW 7737   2.194   3.489   0.425
 2062SOL    HW1 7738   2.155   3.536   0.351
 2062SOL    HW2 7739   2.128   3.424   0.450
 2062SOL     MW 7740   2.181   3.487   0.419
 2063SOL     OW 7741   2.686   2.898   0.449
 2063SOL    HW1 7742   2.688   2.872   0.356
 2063SOL    HW2 7743   2.744   2.835   0.492
 2063SOL     MW 7744   2.694   2.887   0.443
 2064SOL     OW 7745   3.243   3.666   0.651
 2064SOL    HW1 7746   3.186   3.619   0.590
 2064SOL    HW2 7747   3.329   3.627   0.638
 2064SOL     MW 7748   3.246   3.657   0.641
 2065SOL     OW 7749   3.196   2.142   0.782
 2065SOL    HW1 7750   3.224   2.074   0.843
 2065SOL    HW2 7751   3.110   2.113   0.752
 2065SOL     MW 7752   3.189   2.129   0.786
 2066SOL     OW 7753   2.001   3.076   0.716
 2066SOL    HW1 7754   2.065   3.108   0.779
 2066SOL    HW2 7755   2.050   3.012   0.664
 2066SOL     MW 7756   2.016   3.072   0.717
 2067SOL     OW 7757   2.501   3.152   1.698
 2067SOL    HW1 7758   2.549   3.235   1.685
 2067SOL    HW2 7759   2.558   3.100   1.754
 2067SOL     MW 7760   2.515   3.156   1.704
 2068SOL     OW 7761   2.077   3.394   1.838
 2068SOL    HW1 7762   2.133   3.318   1.853
 2068SOL    HW2 7763   2.026   3.372   1.760
 2068SOL     MW 7764   2.077   3.381   1.829
 2069SOL     OW 7765   2.844   1.951   0.054
 2069SOL    HW1 7766   2.900   1.943  -0.024
 2069SOL    HW2 7767   2.821   1.861   0.076
 2069SOL     MW 7768   2.849   1.938   0.047
 2070SOL     OW 7769   3.349   2.802   0.259
 2070SOL    HW1 7770   3.316   2.891   0.249
 2070SOL    HW2 7771   3.314   2.773   0.344
 2070SOL     MW 7772   3.339   2.811   0.270
 2071SOL     OW 7773   2.255   1.899   1.789
 2071SOL    HW1 7774   2.183   1.864   1.737
 2071SOL    HW2 7775   2.313   1.940   1.724
 2071SOL     MW 7776   2.253   1.900   1.774
 2072SOL     OW 7777   2.279   3.389   1.088
 2072SOL    HW1 7778   2.324   3.451   1.145
 2072SOL    HW2 7779   2.186   3.408   1.101
 2072SOL     MW 7780   2.272   3.399   1.095
 2073SOL     OW 7781   3.719   2.918   1.442
 2073SOL    HW1 7782   3.634   2.931   1.401
 2073SOL    HW2 7783   3.699   2.882   1.529
 2073SOL     MW 7784   3.706   2.914   1.447
 2074SOL     OW 7785   2.701   3.457   1.196
 2074SOL    HW1 7786   2.725   3.446   1.105
 2074SOL    HW2 7787   2.624   3.514   1.194
 2074SOL     MW 7788   2.693   3.462   1.185
 2075SOL     OW 7789   2.343   2.840   0.051
 2075SOL    HW1 7790   2.266   2.853   0.107
 2075SOL    HW2 7791   2.307   2.804  -0.030
 2075SOL     MW 7792   2.329   2.836   0.048
 2076SOL     OW 7793   2.996   2.813   0.294
 2076SOL    HW1 7794   2.906   2.834   0.269
 2076SOL    HW2 7795   3.023   2.886   0.350
 2076SOL     MW 7796   2.988   2.825   0.297
 2077SOL     OW 7797   3.696   2.096   1.261
 2077SOL    HW1 7798   3.677   2.163   1.196
 2077SOL    HW2 7799   3.753   2.034   1.216
 2077SOL     MW 7800   3.700   2.097   1.247
 2078SOL     OW 7801   2.383   3.169   0.450
 2078SOL    HW1 7802   2.376   3.201   0.540
 2078SOL    HW2 7803   2.293   3.153   0.422
 2078SOL     MW 7804   2.371   3.171   0.457
 2079SOL     OW 7805   2.978   3.562   1.359
 2079SOL    HW1 7806   2.898   3.547   1.309
 2079SOL    HW2 7807   2.985   3.657   1.366
 2079SOL     MW 7808   2.969   3.573   1.353
 2080SOL     OW 7809   3.092   3.527   0.849
 2080SOL    HW1 7810   3.139   3.600   0.808
 2080SOL    HW2 7811   3.013   3.566   0.885
 2080SOL     MW 7812   3.087   3.542   0.848
 2081SOL     OW 7813   3.500   3.622   1.124
 2081SOL    HW1 7814   3.543   3.592   1.204
 2081SOL    HW2 7815   3.419   3.570   1.121
 2081SOL     MW 7816   3.495   3.611   1.134
 2082SOL     OW 7817   2.585   2.586   1.831
 2082SOL    HW1 7818   2.655   2.528   1.803
 2082SOL    HW2 7819   2.528   2.531   1.886
 2082SOL     MW 7820   2.587   2.573   1.835
 2083SOL     OW 7821   3.372   2.798   1.464
 2083SOL    HW1 7822   3.377   2.851   1.544
 2083SOL    HW2 7823   3.334   2.715   1.492
 2083SOL     MW 7824   3.368   2.793   1.479
 2084SOL     OW 7825   3.012   1.933   1.710
 2084SOL    HW1 7826   3.007   1.840   1.691
 2084SOL    HW2 7827   3.095   1.944   1.756
 2084SOL     MW 7828   3.020   1.922   1.714
 2085SOL     OW 7829   3.482   3.204   0.986
 2085SOL    HW1 7830   3.517   3.186   0.899
 2085SOL    HW2 7831   3.387   3.205   0.973
 2085SOL     MW 7832   3.474   3.201   0.973
 2086SOL     OW 7833   2.911   2.852   1.355
 2086SOL    HW1 7834   2.954   2.887   1.433
 2086SOL    HW2 7835   2.894   2.929   1.301
 2086SOL     MW 7836   2.914   2.867   1.358
 2087SOL     OW 7837   2.061   3.056   1.517
 2087SOL    HW1 7838   2.089   3.009   1.595
 2087SOL    HW2 7839   1.982   3.011   1.488
 2087SOL     MW 7840   2.054   3.045   1.523
 2088SOL     OW 7841   3.111   2.601   0.203
 2088SOL    HW1 7842   3.158   2.619   0.122
 2088SOL    HW2 7843   3.077   2.685   0.231
 2088SOL     MW 7844   3.113   2.615   0.196
 2089SOL     OW 7845   2.224   2.779   0.697
 2089SOL    HW1 7846   2.282   2.835   0.645
 2089SOL    HW2 7847   2.268   2.694   0.699
 2089SOL     MW 7848   2.237   2.776   0.690
 2090SOL     OW 7849   3.364   2.131   0.534
 2090SOL    HW1 7850   3.286   2.081   0.559
 2090SOL    HW2 7851   3.335   2.222   0.534
 2090SOL     MW 7852   3.350   2.135   0.537
 2091SOL     OW 7853   2.950   2.093   0.693
 2091SOL    HW1 7854   2.970   2.168   0.637
 2091SOL    HW2 7855   2.930   2.132   0.778
 2091SOL     MW 7856   2.951   2.109   0.697
 2092SOL     OW 7857   3.710   2.866   1.712
 2092SOL    HW1 7858   3.623   2.846   1.748
 2092SOL    HW2 7859   3.764   2.792   1.737
 2092SOL     MW 7860   3.705   2.855   1.720
 2093SOL     OW 7861   1.931   3.379   0.869
 2093SOL    HW1 7862   1.963   3.383   0.960
 2093SOL    HW2 7863   1.836   3.387   0.877
 2093SOL     MW 7864   1.923   3.382   0.882
 2094SOL     OW 7865   1.886   2.505   0.416
 2094SOL    HW1 7866   1.826   2.477   0.486
 2094SOL    HW2 7867   1.960   2.445   0.422
 2094SOL     MW 7868   1.888   2.494   0.425
 2095SOL     OW 7869   3.454   3.717   1.850
 2095SOL    HW1 7870   3.499   3.641   1.815
 2095SOL    HW2 7871   3.492   3.730   1.937
 2095SOL     MW 7872   3.464   3.710   1.856
 2096SOL     OW 7873   3.054   3.236   0.576
 2096SOL    HW1 7874   3.077   3.187   0.654
 2096SOL    HW2 7875   3.135   3.278   0.548
 2096SOL     MW 7876   3.067   3.236   0.583
 2097SOL     OW 7877   2.312   2.244   1.305
 2097SOL    HW1 7878   2.345   2.325   1.345
 2097SOL    HW2 7879   2.285   2.270   1.217
 2097SOL     MW 7880   2.311   2.258   1.299
 2098SOL     OW 7881   2.266   2.211   1.041
 2098SOL    HW1 7882   2.296   2.125   1.012
 2098SOL    HW2 7883   2.171   2.204   1.044
 2098SOL     MW 7884   2.258   2.200   1.039
 2099SOL     OW 7885   2.409   1.989   0.932
 2099SOL    HW1 7886   2.419   1.898   0.958
 2099SOL    HW2 7887   2.365   1.985   0.847
 2099SOL     MW 7888   2.405   1.977   0.924
 2100SOL     OW 7889   3.560   2.311   1.103
 2100SOL    HW1 7890   3.493   2.344   1.163
 2100SOL    HW2 7891   3.603   2.389   1.069
 2100SOL     MW 7892   3.558   2.326   1.107
 2101SOL     OW 7893   3.738   3.031   1.073
 2101SOL    HW1 7894   3.731   2.971   0.998
 2101SOL    HW2 7895   3.664   3.091   1.062
 2101SOL     MW 7896   3.728   3.031   1.062
 2102SOL     OW 7897   3.203   2.388   1.270
 2102SOL    HW1 7898   3.224   2.389   1.177
 2102SOL    HW2 7899   3.248   2.310   1.303
 2102SOL     MW 7900   3.210   2.378   1.262
 2103SOL     OW 7901   3.194   1.903   0.212
 2103SOL    HW1 7902   3.268   1.947   0.255
 2103SOL    HW2 7903   3.118   1.957   0.234
 2103SOL     MW 7904   3.194   1.915   0.220
 2104SOL     OW 7905   3.254   2.678   0.490
 2104SOL    HW1 7906   3.169   2.648   0.460
 2104SOL    HW2 7907   3.246   2.685   0.585
 2104SOL     MW 7908   3.242   2.676   0.499
 2105SOL     OW 7909   2.614   2.121   1.044
 2105SOL    HW1 7910   2.587   2.123   1.135
 2105SOL    HW2 7911   2.544   2.073   0.999
 2105SOL     MW 7912   2.602   2.117   1.051
 2106SOL     OW 7913   2.468   3.613   1.206
 2106SOL    HW1 7914   2.520   3.690   1.183
 2106SOL    HW2 7915   2.477   3.605   1.301
 2106SOL     MW 7916   2.477   3.620   1.217
 2107SOL     OW 7917   3.370   3.198   1.438
 2107SOL    HW1 7918   3.355   3.127   1.501
 2107SOL    HW2 7919   3.416   3.156   1.366
 2107SOL     MW 7920   3.376   3.182   1.438
 2108SOL     OW 7921   2.444   2.929   1.555
 2108SOL    HW1 7922   2.481   2.934   1.467
 2108SOL    HW2 7923   2.483   3.002   1.602
 2108SOL     MW 7924   2.454   2.939   1.550
 2109SOL     OW 7925   2.624   2.972   1.367
 2109SOL    HW1 7926   2.683   2.918   1.420
 2109SOL    HW2 7927   2.639   2.944   1.277
 2109SOL     MW 7928   2.634   2.961   1.363
 2110SOL     OW 7929   2.627   2.344   0.216
 2110SOL    HW1 7930   2.700   2.393   0.179
 2110SOL    HW2 7931   2.643   2.253   0.190
 2110SOL     MW 7932   2.639   2.339   0.209
 2111SOL     OW 7933   3.095   1.940   1.130
 2111SOL    HW1 7934   3.150   1.949   1.052
 2111SOL    HW2 7935   3.150   1.974   1.201
 2111SOL     MW 7936   3.109   1.945   1.129
 2112SOL     OW 7937   2.102   2.853   0.314
 2112SOL    HW1 7938   2.039   2.869   0.243
 2112SOL    HW2 7939   2.049   2.816   0.385
 2112SOL     MW 7940   2.087   2.850   0.314
 2113SOL     OW 7941   2.458   3.207   0.173
 2113SOL    HW1 7942   2.473   3.183   0.265
 2113SOL    HW2 7943   2.366   3.185   0.157
 2113SOL     MW 7944   2.448   3.200   0.183
 2114SOL     OW 7945   2.256   3.596   0.894
 2114SOL    HW1 7946   2.260   3.507   0.929
 2114SOL    HW2 7947   2.282   3.587   0.803
 2114SOL     MW 7948   2.259   3.584   0.886
 2115SOL     OW 7949   1.962   3.349   1.388
 2115SOL    HW1 7950   1.952   3.307   1.474
 2115SOL    HW2 7951   1.883   3.402   1.378
 2115SOL     MW 7952   1.951   3.350   1.399
 2116SOL     OW 7953   2.866   2.213   0.958
 2116SOL    HW1 7954   2.796   2.165   1.003
 2116SOL    HW2 7955   2.898   2.276   1.022
 2116SOL     MW 7956   2.861   2.215   0.972
 2117SOL     OW 7957   2.517   2.649   1.578
 2117SOL    HW1 7958   2.510   2.744   1.566
 2117SOL    HW2 7959   2.526   2.638   1.673
 2117SOL     MW 7960   2.518   2.661   1.588
 2118SOL     OW 7961   2.238   3.164   1.836
 2118SOL    HW1 7962   2.310   3.166   1.773
 2118SOL    HW2 7963   2.208   3.073   1.835
 2118SOL     MW 7964   2.243   3.153   1.828
 2119SOL     OW 7965   3.522   3.457   1.787
 2119SOL    HW1 7966   3.495   3.454   1.878
 2119SOL    HW2 7967   3.618   3.461   1.790
 2119SOL     MW 7968   3.532   3.457   1.799
 2120SOL     OW 7969   1.888   3.654   1.843
 2120SOL    HW1 7970   1.938   3.632   1.765
 2120SOL    HW2 7971   1.896   3.749   1.851
 2120SOL     MW 7972   1.896   3.663   1.834
 2121SOL     OW 7973   2.649   3.412   0.847
 2121SOL    HW1 7974   2.577   3.349   0.860
 2121SOL    HW2 7975   2.610   3.497   0.865
 2121SOL     MW 7976   2.633   3.415   0.850
 2122SOL     OW 7977   2.969   2.260   0.495
 2122SOL    HW1 7978   2.991   2.197   0.427
 2122SOL    HW2 7979   2.874   2.252   0.506
 2122SOL     MW 7980   2.959   2.251   0.487
 2123SOL     OW 7981   2.054   1.950   0.427
 2123SOL    HW1 7982   2.125   1.971   0.366
 2123SOL    HW2 7983   2.008   1.878   0.385
 2123SOL     MW 7984   2.058   1.944   0.413
 2124SOL     OW 7985   1.885   2.417   1.570
 2124SOL    HW1 7986   1.949   2.483   1.545
 2124SOL    HW2 7987   1.804   2.444   1.527
 2124SOL     MW 7988   1.883   2.429   1.562
 2125SOL     OW 7989   3.623   3.324   0.527
 2125SOL    HW1 7990   3.593   3.257   0.588
 2125SOL    HW2 7991   3.717   3.330   0.541
 2125SOL     MW 7992   3.631   3.316   0.537
 2126SOL     OW 7993   2.841   1.921   0.510
 2126SOL    HW1 7994   2.878   1.980   0.575
 2126SOL    HW2 7995   2.818   1.977   0.436
 2126SOL     MW 7996   2.842   1.936   0.509
 2127SOL     OW 7997   3.606   2.734   0.633
 2127SOL    HW1 7998   3.700   2.723   0.621
 2127SOL    HW2 7999   3.582   2.806   0.574
 2127SOL     MW 8000   3.616   2.742   0.624
 2128SOL     OW 8001   2.055   2.658   1.778
 2128SOL    HW1 8002   1.981   2.602   1.804
 2128SOL    HW2 8003   2.050   2.661   1.683
 2128SOL     MW 8004   2.044   2.651   1.768
 2129SOL     OW 8005   2.221   1.945   1.228
 2129SOL    HW1 8006   2.264   2.029   1.248
 2129SOL    HW2 8007   2.294   1.883   1.221
 2129SOL     MW 8008   2.236   1.948   1.229
 2130SOL     OW 8009   3.038   2.471   1.470
 2130SOL    HW1 8010   3.074   2.444   1.386
 2130SOL    HW2 8011   2.951   2.505   1.449
 2130SOL     MW 8012   3.032   2.472   1.457
 2131SOL     OW 8013   2.021   2.343   0.695
 2131SOL    HW1 8014   2.083   2.350   0.768
 2131SOL    HW2 8015   2.021   2.250   0.672
 2131SOL     MW 8016   2.029   2.332   0.702
 2132SOL     OW 8017   3.568   3.683   0.227
 2132SOL    HW1 8018   3.635   3.716   0.167
 2132SOL    HW2 8019   3.525   3.762   0.261
 2132SOL     MW 8020   3.570   3.698   0.223
 2133SOL     OW 8021   2.703   2.604   1.179
 2133SOL    HW1 8022   2.661   2.522   1.155
 2133SOL    HW2 8023   2.704   2.603   1.275
 2133SOL     MW 8024   2.696   2.593   1.188
 2134SOL     OW 8025   2.507   2.074   1.284
 2134SOL    HW1 8026   2.438   2.137   1.305
 2134SOL    HW2 8027   2.534   2.038   1.369
 2134SOL     MW 8028   2.501   2.077   1.297
 2135SOL     OW 8029   1.890   2.915   0.153
 2135SOL    HW1 8030   1.859   2.980   0.216
 2135SOL    HW2 8031   1.839   2.837   0.172
 2135SOL     MW 8032   1.880   2.912   0.163
 2136SOL     OW 8033   3.334   2.666   0.745
 2136SOL    HW1 8034   3.414   2.681   0.694
 2136SOL    HW2 8035   3.327   2.571   0.751
 2136SOL     MW 8036   3.343   2.655   0.740
 2137SOL     OW 8037   2.474   3.715   0.095
 2137SOL    HW1 8038   2.379   3.715   0.087
 2137SOL    HW2 8039   2.490   3.661   0.173
 2137SOL     MW 8040   2.464   3.709   0.104
 2138SOL     OW 8041   2.784   2.592   1.442
 2138SOL    HW1 8042   2.853   2.659   1.439
 2138SOL    HW2 8043   2.717   2.630   1.498
 2138SOL     MW 8044   2.785   2.605   1.449
 2139SOL     OW 8045   2.202   2.892   1.690
 2139SOL    HW1 8046   2.156   2.808   1.692
 2139SOL    HW2 8047   2.259   2.886   1.614
 2139SOL     MW 8048   2.204   2.880   1.682
 2140SOL     OW 8049   3.319   2.535   0.011
 2140SOL    HW1 8050   3.247   2.511  -0.047
 2140SOL    HW2 8051   3.385   2.572  -0.047
 2140SOL     MW 8052   3.318   2.537  -0.004
 2141SOL     OW 8053   2.453   3.267   0.691
 2141SOL    HW1 8054   2.518   3.200   0.712
 2141SOL    HW2 8055   2.505   3.344   0.668
 2141SOL     MW 8056   2.468   3.269   0.690
 2142SOL     OW 8057   2.714   2.432   0.821
 2142SOL    HW1 8058   2.654   2.450   0.893
 2142SOL    HW2 8059   2.748   2.344   0.840
 2142SOL     MW 8060   2.710   2.422   0.834
 2143SOL     OW 8061   3.655   1.931   1.490
 2143SOL    HW1 8062   3.576   1.977   1.518
 2143SOL    HW2 8063   3.690   1.985   1.419
 2143SOL     MW 8064   3.649   1.944   1.484
 2144SOL     OW 8065   2.939   3.015   0.840
 2144SOL    HW1 8066   3.031   2.996   0.858
 2144SOL    HW2 8067   2.912   2.945   0.780
 2144SOL     MW 8068   2.947   3.003   0.834
 2145SOL     OW 8069   3.132   3.201   1.204
 2145SOL    HW1 8070   3.143   3.168   1.293
 2145SOL    HW2 8071   3.051   3.160   1.173
 2145SOL     MW 8072   3.122   3.193   1.210
 2146SOL     OW 8073   3.451   2.041   0.297
 2146SOL    HW1 8074   3.444   2.045   0.392
 2146SOL    HW2 8075   3.463   2.132   0.270
 2146SOL     MW 8076   3.452   2.054   0.305
 2147SOL     OW 8077   3.179   2.847   1.260
 2147SOL    HW1 8078   3.242   2.844   1.333
 2147SOL    HW2 8079   3.095   2.865   1.302
 2147SOL     MW 8080   3.175   2.849   1.275
 2148SOL     OW 8081   2.723   3.562   0.449
 2148SOL    HW1 8082   2.781   3.633   0.476
 2148SOL    HW2 8083   2.746   3.490   0.507
 2148SOL     MW 8084   2.734   3.562   0.460
 2149SOL     OW 8085   3.518   2.024   1.039
 2149SOL    HW1 8086   3.563   1.942   1.058
 2149SOL    HW2 8087   3.538   2.080   1.115
 2149SOL     MW 8088   3.528   2.020   1.051
 2150SOL     OW 8089   2.295   3.205   1.501
 2150SOL    HW1 8090   2.216   3.155   1.524
 2150SOL    HW2 8091   2.365   3.164   1.551
 2150SOL     MW 8092   2.293   3.193   1.511
 2151SOL     OW 8093   2.179   1.994   0.184
 2151SOL    HW1 8094   2.108   2.049   0.152
 2151SOL    HW2 8095   2.221   1.960   0.105
 2151SOL     MW 8096   2.175   1.996   0.170
 2152SOL     OW 8097   3.303   2.491   1.020
 2152SOL    HW1 8098   3.226   2.537   0.986
 2152SOL    HW2 8099   3.360   2.560   1.054
 2152SOL     MW 8100   3.300   2.506   1.020
 2153SOL     OW 8101   1.969   3.350   0.222
 2153SOL    HW1 8102   1.986   3.434   0.264
 2153SOL    HW2 8103   2.004   3.359   0.134
 2153SOL     MW 8104   1.974   3.363   0.216
 2154SOL     OW 8105   3.604   2.707   2.125
 2154SOL    HW1 8106   3.645   2.649   2.190
 2154SOL    HW2 8107   3.511   2.699   2.142
 2154SOL     MW 8108   3.598   2.699   2.135
 2155SOL     OW 8109   3.470   2.639   3.120
 2155SOL    HW1 8110   3.425   2.706   3.171
 2155SOL    HW2 8111   3.558   2.675   3.106
 2155SOL     MW 8112   3.476   2.652   3.124
 2156SOL     OW 8113   2.398   2.890   2.354
 2156SOL    HW1 8114   2.488   2.865   2.338
 2156SOL    HW2 8115   2.394   2.983   2.331
 2156SOL     MW 8116   2.410   2.899   2.349
 2157SOL     OW 8117   2.893   3.478   3.497
 2157SOL    HW1 8118   2.934   3.514   3.418
 2157SOL    HW2 8119   2.928   3.389   3.504
 2157SOL     MW 8120   2.904   3.471   3.488
 2158SOL     OW 8121   3.450   3.033   3.101
 2158SOL    HW1 8122   3.371   2.998   3.059
 2158SOL    HW2 8123   3.477   3.105   3.045
 2158SOL     MW 8124   3.443   3.038   3.088
 2159SOL     OW 8125   2.682   2.346   2.367
 2159SOL    HW1 8126   2.657   2.434   2.395
 2159SOL    HW2 8127   2.679   2.349   2.271
 2159SOL     MW 8128   2.678   2.358   2.359
 2160SOL     OW 8129   2.124   2.374   2.295
 2160SOL    HW1 8130   2.156   2.462   2.277
 2160SOL    HW2 8131   2.112   2.372   2.390
 2160SOL     MW 8132   2.127   2.386   2.307
 2161SOL     OW 8133   2.202   2.787   3.196
 2161SOL    HW1 8134   2.265   2.734   3.147
 2161SOL    HW2 8135   2.183   2.861   3.139
 2161SOL     MW 8136   2.208   2.789   3.183
 2162SOL     OW 8137   2.523   2.129   2.382
 2162SOL    HW1 8138   2.581   2.205   2.384
 2162SOL    HW2 8139   2.458   2.150   2.315
 2162SOL     MW 8140   2.522   2.141   2.373
 2163SOL     OW 8141   2.610   3.056   2.557
 2163SOL    HW1 8142   2.690   3.059   2.609
 2163SOL    HW2 8143   2.638   3.023   2.471
 2163SOL     MW 8144   2.624   3.052   2.552
 2164SOL     OW 8145   2.635   3.397   3.460
 2164SOL    HW1 8146   2.719   3.423   3.499
 2164SOL    HW2 8147   2.659   3.341   3.386
 2164SOL     MW 8148   2.649   3.393   3.455
 2165SOL     OW 8149   2.387   2.560   2.548
 2165SOL    HW1 8150   2.372   2.480   2.599
 2165SOL    HW2 8151   2.469   2.595   2.582
 2165SOL     MW 8152   2.395   2.552   2.560
 2166SOL     OW 8153   2.724   3.246   3.233
 2166SOL    HW1 8154   2.688   3.312   3.173
 2166SOL    HW2 8155   2.652   3.184   3.246
 2166SOL     MW 8156   2.710   3.246   3.227
 2167SOL     OW 8157   1.972   3.646   2.704
 2167SOL    HW1 8158   2.061   3.638   2.739
 2167SOL    HW2 8159   1.936   3.558   2.709
 2167SOL     MW 8160   1.979   3.633   2.709
 2168SOL     OW 8161   2.236   3.173   2.739
 2168SOL    HW1 8162   2.212   3.226   2.815
 2168SOL    HW2 8163   2.292   3.231   2.687
 2168SOL     MW 8164   2.240   3.188   2.742
 2169SOL     OW 8165   2.206   3.469   3.334
 2169SOL    HW1 8166   2.114   3.445   3.319
 2169SOL    HW2 8167   2.250   3.386   3.351
 2169SOL     MW 8168   2.200   3.454   3.333
 2170SOL     OW 8169   2.789   3.179   2.266
 2170SOL    HW1 8170   2.766   3.241   2.334
 2170SOL    HW2 8171   2.746   3.097   2.292
 2170SOL     MW 8172   2.781   3.175   2.277
 2171SOL     OW 8173   3.662   2.180   2.722
 2171SOL    HW1 8174   3.599   2.160   2.791
 2171SOL    HW2 8175   3.652   2.109   2.659
 2171SOL     MW 8176   3.652   2.167   2.723
 2172SOL     OW 8177   2.286   2.152   2.234
 2172SOL    HW1 8178   2.260   2.114   2.150
 2172SOL    HW2 8179   2.223   2.222   2.250
 2172SOL     MW 8180   2.275   2.155   2.225
 2173SOL     OW 8181   2.121   3.113   2.271
 2173SOL    HW1 8182   2.069   3.181   2.227
 2173SOL    HW2 8183   2.118   3.039   2.211
 2173SOL     MW 8184   2.113   3.112   2.258
 2174SOL     OW 8185   3.463   2.952   2.374
 2174SOL    HW1 8186   3.373   2.952   2.409
 2174SOL    HW2 8187   3.456   2.998   2.291
 2174SOL     MW 8188   3.450   2.958   2.368
 2175SOL     OW 8189   3.263   2.587   3.446
 2175SOL    HW1 8190   3.332   2.525   3.423
 2175SOL    HW2 8191   3.188   2.561   3.393
 2175SOL     MW 8192   3.263   2.574   3.437
 2176SOL     OW 8193   2.999   2.974   3.438
 2176SOL    HW1 8194   2.984   3.067   3.423
 2176SOL    HW2 8195   3.094   2.964   3.438
 2176SOL     MW 8196   3.008   2.984   3.435
 2177SOL     OW 8197   3.370   2.930   2.766
 2177SOL    HW1 8198   3.373   2.864   2.697
 2177SOL    HW2 8199   3.455   2.973   2.762
 2177SOL     MW 8200   3.382   2.926   2.757
 2178SOL     OW 8201   2.990   2.533   2.335
 2178SOL    HW1 8202   3.016   2.557   2.246
 2178SOL    HW2 8203   2.972   2.440   2.331
 2178SOL     MW 8204   2.992   2.525   2.322
 2179SOL     OW 8205   2.311   3.569   2.504
 2179SOL    HW1 8206   2.343   3.657   2.482
 2179SOL    HW2 8207   2.264   3.541   2.426
 2179SOL     MW 8208   2.310   3.577   2.491
 2180SOL     OW 8209   3.695   1.931   2.553
 2180SOL    HW1 8210   3.749   1.882   2.615
 2180SOL    HW2 8211   3.638   1.865   2.514
 2180SOL     MW 8212   3.695   1.915   2.555
 2181SOL     OW 8213   2.814   1.884   2.966
 2181SOL    HW1 8214   2.773   1.962   2.928
 2181SOL    HW2 8215   2.908   1.902   2.961
 2181SOL     MW 8216   2.820   1.896   2.961
 2182SOL     OW 8217   3.431   3.437   2.052
 2182SOL    HW1 8218   3.479   3.506   2.098
 2182SOL    HW2 8219   3.352   3.481   2.021
 2182SOL     MW 8220   3.426   3.451   2.055
 2183SOL     OW 8221   2.829   2.562   1.996
 2183SOL    HW1 8222   2.831   2.509   1.917
 2183SOL    HW2 8223   2.917   2.599   2.002
 2183SOL     MW 8224   2.841   2.561   1.985
 2184SOL     OW 8225   3.443   2.488   2.332
 2184SOL    HW1 8226   3.482   2.488   2.419
 2184SOL    HW2 8227   3.384   2.564   2.332
 2184SOL     MW 8228   3.440   2.499   2.343
 2185SOL     OW 8229   2.760   2.855   3.461
 2185SOL    HW1 8230   2.737   2.835   3.551
 2185SOL    HW2 8231   2.845   2.899   3.466
 2185SOL     MW 8232   2.767   2.858   3.473
 2186SOL     OW 8233   2.840   1.992   3.221
 2186SOL    HW1 8234   2.846   1.954   3.134
 2186SOL    HW2 8235   2.829   2.086   3.206
 2186SOL     MW 8236   2.841   2.000   3.209
 2187SOL     OW 8237   2.929   2.481   3.055
 2187SOL    HW1 8238   3.004   2.510   3.002
 2187SOL    HW2 8239   2.861   2.546   3.039
 2187SOL     MW 8240   2.930   2.493   3.045
 2188SOL     OW 8241   3.479   2.449   3.332
 2188SOL    HW1 8242   3.460   2.358   3.311
 2188SOL    HW2 8243   3.457   2.498   3.253
 2188SOL     MW 8244   3.474   2.442   3.319
 2189SOL     OW 8245   3.621   3.543   3.236
 2189SOL    HW1 8246   3.549   3.505   3.287
 2189SOL    HW2 8247   3.638   3.628   3.277
 2189SOL     MW 8248   3.615   3.548   3.248
 2190SOL     OW 8249   2.926   2.187   3.438
 2190SOL    HW1 8250   2.892   2.226   3.357
 2190SOL    HW2 8251   2.904   2.095   3.431
 2190SOL     MW 8252   2.919   2.180   3.428
 2191SOL     OW 8253   3.630   2.374   2.498
 2191SOL    HW1 8254   3.719   2.343   2.515
 2191SOL    HW2 8255   3.573   2.314   2.546
 2191SOL     MW 8256   3.633   2.362   2.507
 2192SOL     OW 8257   2.999   3.181   2.088
 2192SOL    HW1 8258   2.949   3.183   2.170
 2192SOL    HW2 8259   2.933   3.199   2.020
 2192SOL     MW 8260   2.985   3.183   2.090
 2193SOL     OW 8261   2.003   2.261   2.890
 2193SOL    HW1 8262   1.975   2.352   2.899
 2193SOL    HW2 8263   1.940   2.222   2.829
 2193SOL     MW 8264   1.990   2.267   2.884
 2194SOL     OW 8265   2.462   3.599   2.196
 2194SOL    HW1 8266   2.383   3.557   2.229
 2194SOL    HW2 8267   2.528   3.582   2.263
 2194SOL     MW 8268   2.461   3.591   2.209
 2195SOL     OW 8269   3.590   3.119   3.593
 2195SOL    HW1 8270   3.640   3.045   3.625
 2195SOL    HW2 8271   3.536   3.146   3.668
 2195SOL     MW 8272   3.590   3.113   3.606
 2196SOL     OW 8273   3.724   2.754   3.095
 2196SOL    HW1 8274   3.740   2.792   3.008
 2196SOL    HW2 8275   3.758   2.820   3.156
 2196SOL     MW 8276   3.731   2.767   3.091
 2197SOL     OW 8277   3.516   3.463   2.764
 2197SOL    HW1 8278   3.545   3.530   2.825
 2197SOL    HW2 8279   3.497   3.387   2.819
 2197SOL     MW 8280   3.518   3.463   2.779
 2198SOL     OW 8281   3.179   3.530   1.971
 2198SOL    HW1 8282   3.105   3.493   2.021
 2198SOL    HW2 8283   3.187   3.620   2.004
 2198SOL     MW 8284   3.170   3.537   1.983
 2199SOL     OW 8285   1.987   2.536   3.060
 2199SOL    HW1 8286   2.049   2.566   3.126
 2199SOL    HW2 8287   1.921   2.605   3.054
 2199SOL     MW 8288   1.986   2.549   3.067
 2200SOL     OW 8289   3.403   3.204   1.913
 2200SOL    HW1 8290   3.350   3.253   1.849
 2200SOL    HW2 8291   3.434   3.270   1.974
 2200SOL     MW 8292   3.401   3.218   1.911
 2201SOL     OW 8293   2.628   2.093   1.968
 2201SOL    HW1 8294   2.576   2.013   1.956
 2201SOL    HW2 8295   2.715   2.070   1.936
 2201SOL     MW 8296   2.631   2.079   1.962
 2202SOL     OW 8297   2.134   2.964   3.019
 2202SOL    HW1 8298   2.187   3.039   3.044
 2202SOL    HW2 8299   2.053   3.002   2.985
 2202SOL     MW 8300   2.130   2.979   3.019
 2203SOL     OW 8301   2.674   2.868   3.007
 2203SOL    HW1 8302   2.702   2.777   3.019
 2203SOL    HW2 8303   2.603   2.862   2.943
 2203SOL     MW 8304   2.667   2.856   3.002
 2204SOL     OW 8305   1.989   2.733   2.425
 2204SOL    HW1 8306   2.080   2.748   2.452
 2204SOL    HW2 8307   1.992   2.654   2.371
 2204SOL     MW 8308   2.001   2.725   2.423
 2205SOL     OW 8309   2.611   1.991   3.386
 2205SOL    HW1 8310   2.588   1.899   3.388
 2205SOL    HW2 8311   2.697   1.993   3.343
 2205SOL     MW 8312   2.618   1.981   3.382
 2206SOL     OW 8313   2.295   2.515   3.425
 2206SOL    HW1 8314   2.375   2.565   3.411
 2206SOL    HW2 8315   2.286   2.509   3.520
 2206SOL     MW 8316   2.304   2.521   3.435
 2207SOL     OW 8317   1.997   3.345   2.464
 2207SOL    HW1 8318   1.969   3.384   2.546
 2207SOL    HW2 8319   2.017   3.254   2.486
 2207SOL     MW 8320   1.995   3.337   2.477
 2208SOL     OW 8321   2.830   3.388   2.499
 2208SOL    HW1 8322   2.913   3.342   2.483
 2208SOL    HW2 8323   2.820   3.387   2.595
 2208SOL     MW 8324   2.840   3.381   2.509
 2209SOL     OW 8325   2.563   3.445   1.904
 2209SOL    HW1 8326   2.503   3.514   1.874
 2209SOL    HW2 8327   2.508   3.387   1.957
 2209SOL     MW 8328   2.547   3.447   1.906
 2210SOL     OW 8329   3.001   2.090   2.127
 2210SOL    HW1 8330   2.934   2.066   2.064
 2210SOL    HW2 8331   3.066   2.139   2.076
 2210SOL     MW 8332   3.001   2.092   2.112
 2211SOL     OW 8333   3.068   2.612   2.835
 2211SOL    HW1 8334   3.081   2.706   2.845
 2211SOL    HW2 8335   3.029   2.602   2.749
 2211SOL     MW 8336   3.064   2.623   2.825
 2212SOL     OW 8337   2.520   2.807   2.639
 2212SOL    HW1 8338   2.431   2.798   2.672
 2212SOL    HW2 8339   2.524   2.897   2.607
 2212SOL     MW 8340   2.509   2.818   2.639
 2213SOL     OW 8341   3.319   2.390   2.634
 2213SOL    HW1 8342   3.264   2.311   2.633
 2213SOL    HW2 8343   3.301   2.431   2.718
 2213SOL     MW 8344   3.309   2.385   2.643
 2214SOL     OW 8345   2.290   2.077   3.451
 2214SOL    HW1 8346   2.211   2.095   3.503
 2214SOL    HW2 8347   2.285   2.139   3.378
 2214SOL     MW 8348   2.280   2.087   3.448
 2215SOL     OW 8349   2.194   3.489   2.293
 2215SOL    HW1 8350   2.155   3.536   2.219
 2215SOL    HW2 8351   2.128   3.424   2.318
 2215SOL     MW 8352   2.181   3.487   2.287
 2216SOL     OW 8353   3.239   3.458   3.089
 2216SOL    HW1 8354   3.164   3.504   3.127
 2216SOL    HW2 8355   3.221   3.365   3.106
 2216SOL     MW 8356   3.228   3.452   3.097
 2217SOL     OW 8357   3.196   2.142   2.650
 2217SOL    HW1 8358   3.224   2.074   2.711
 2217SOL    HW2 8359   3.110   2.113   2.620
 2217SOL     MW 8360   3.189   2.129   2.654
 2218SOL     OW 8361   2.001   3.076   2.584
 2218SOL    HW1 8362   2.065   3.108   2.647
 2218SOL    HW2 8363   2.050   3.012   2.532
 2218SOL     MW 8364   2.016   3.072   2.585
 2219SOL     OW 8365   2.501   3.152   3.566
 2219SOL    HW1 8366   2.549   3.235   3.553
 2219SOL    HW2 8367   2.558   3.100   3.622
 2219SOL     MW 8368   2.515   3.156   3.572
 2220SOL     OW 8369   2.844   1.951   1.922
 2220SOL    HW1 8370   2.900   1.943   1.844
 2220SOL    HW2 8371   2.821   1.861   1.944
 2220SOL     MW 8372   2.849   1.938   1.915
 2221SOL     OW 8373   2.962   3.231   3.315
 2221SOL    HW1 8374   2.873   3.237   3.283
 2221SOL    HW2 8375   3.006   3.310   3.283
 2221SOL     MW 8376   2.957   3.241   3.307
 2222SOL     OW 8377   3.719   2.918   3.310
 2222SOL    HW1 8378   3.634   2.931   3.269
 2222SOL    HW2 8379   3.699   2.882   3.397
 2222SOL     MW 8380   3.706   2.914   3.315
 2223SOL     OW 8381   2.701   3.457   3.064
 2223SOL    HW1 8382   2.725   3.446   2.973
 2223SOL    HW2 8383   2.624   3.514   3.062
 2223SOL     MW 8384   2.693   3.462   3.053
 2224SOL     OW 8385   2.343   2.840   1.919
 2224SOL    HW1 8386   2.266   2.853   1.975
 2224SOL    HW2 8387   2.307   2.804   1.838
 2224SOL     MW 8388   2.329   2.836   1.916
 2225SOL     OW 8389   2.496   3.162   2.854
 2225SOL    HW1 8390   2.489   3.141   2.948
 2225SOL    HW2 8391   2.414   3.130   2.817
 2225SOL     MW 8392   2.484   3.156   2.861
 2226SOL     OW 8393   3.360   2.172   3.256
 2226SOL    HW1 8394   3.307   2.174   3.336
 2226SOL    HW2 8395   3.345   2.085   3.219
 2226SOL     MW 8396   3.352   2.162   3.261
 2227SOL     OW 8397   3.696   2.096   3.129
 2227SOL    HW1 8398   3.677   2.163   3.064
 2227SOL    HW2 8399   3.753   2.034   3.084
 2227SOL     MW 8400   3.700   2.097   3.115
 2228SOL     OW 8401   1.942   3.254   3.517
 2228SOL    HW1 8402   1.986   3.187   3.463
 2228SOL    HW2 8403   1.857   3.216   3.537
 2228SOL     MW 8404   1.937   3.240   3.513
 2229SOL     OW 8405   2.625   1.929   2.569
 2229SOL    HW1 8406   2.554   1.990   2.551
 2229SOL    HW2 8407   2.676   1.926   2.488
 2229SOL     MW 8408   2.621   1.935   2.556
 2230SOL     OW 8409   2.383   3.169   2.318
 2230SOL    HW1 8410   2.376   3.201   2.408
 2230SOL    HW2 8411   2.293   3.153   2.290
 2230SOL     MW 8412   2.371   3.171   2.325
 2231SOL     OW 8413   2.978   3.562   3.227
 2231SOL    HW1 8414   2.898   3.547   3.177
 2231SOL    HW2 8415   2.985   3.657   3.234
 2231SOL     MW 8416   2.969   3.573   3.221
 2232SOL     OW 8417   3.092   3.527   2.717
 2232SOL    HW1 8418   3.139   3.600   2.676
 2232SOL    HW2 8419   3.013   3.566   2.753
 2232SOL     MW 8420   3.087   3.542   2.716
 2233SOL     OW 8421   3.500   3.622   2.992
 2233SOL    HW1 8422   3.543   3.592   3.072
 2233SOL    HW2 8423   3.419   3.570   2.989
 2233SOL     MW 8424   3.495   3.611   3.002
 2234SOL     OW 8425   2.585   2.586   3.699
 2234SOL    HW1 8426   2.655   2.528   3.671
 2234SOL    HW2 8427   2.528   2.531   3.754
 2234SOL     MW 8428   2.587   2.573   3.703
 2235SOL     OW 8429   3.372   2.798   3.332
 2235SOL    HW1 8430   3.377   2.851   3.412
 2235SOL    HW2 8431   3.334   2.715   3.360
 2235SOL     MW 8432   3.368   2.793   3.347
 2236SOL     OW 8433   3.482   3.204   2.854
 2236SOL    HW1 8434   3.517   3.186   2.767
 2236SOL    HW2 8435   3.387   3.205   2.841
 2236SOL     MW 8436   3.474   3.201   2.841
 2237SOL     OW 8437   2.911   2.852   3.223
 2237SOL    HW1 8438   2.954   2.887   3.301
 2237SOL    HW2 8439   2.894   2.929   3.169
 2237SOL     MW 8440   2.914   2.867   3.226
 2238SOL     OW 8441   3.442   2.339   2.096
 2238SOL    HW1 8442   3.434   2.410   2.033
 2238SOL    HW2 8443   3.460   2.383   2.179
 2238SOL     MW 8444   3.443   2.353   2.098
 2239SOL     OW 8445   2.302   1.994   2.525
 2239SOL    HW1 8446   2.352   2.037   2.456
 2239SOL    HW2 8447   2.217   2.038   2.525
 2239SOL     MW 8448   2.299   2.007   2.516
 2240SOL     OW 8449   2.061   3.056   3.385
 2240SOL    HW1 8450   2.089   3.009   3.463
 2240SOL    HW2 8451   1.982   3.011   3.356
 2240SOL     MW 8452   2.054   3.045   3.391
 2241SOL     OW 8453   2.569   2.383   3.352
 2241SOL    HW1 8454   2.541   2.471   3.376
 2241SOL    HW2 8455   2.538   2.327   3.423
 2241SOL     MW 8456   2.561   2.386   3.364
 2242SOL     OW 8457   2.224   2.779   2.565
 2242SOL    HW1 8458   2.282   2.835   2.513
 2242SOL    HW2 8459   2.268   2.694   2.567
 2242SOL     MW 8460   2.237   2.776   2.558
 2243SOL     OW 8461   3.364   2.131   2.402
 2243SOL    HW1 8462   3.286   2.081   2.427
 2243SOL    HW2 8463   3.335   2.222   2.402
 2243SOL     MW 8464   3.350   2.135   2.405
 2244SOL     OW 8465   2.950   2.093   2.561
 2244SOL    HW1 8466   2.970   2.168   2.505
 2244SOL    HW2 8467   2.930   2.132   2.646
 2244SOL     MW 8468   2.951   2.109   2.565
 2245SOL     OW 8469   2.846   3.343   1.893
 2245SOL    HW1 8470   2.873   3.421   1.845
 2245SOL    HW2 8471   2.753   3.358   1.912
 2245SOL     MW 8472   2.837   3.356   1.889
 2246SOL     OW 8473   3.710   2.866   3.580
 2246SOL    HW1 8474   3.623   2.846   3.616
 2246SOL    HW2 8475   3.764   2.792   3.605
 2246SOL     MW 8476   3.705   2.855   3.588
 2247SOL     OW 8477   1.886   2.505   2.284
 2247SOL    HW1 8478   1.826   2.477   2.354
 2247SOL    HW2 8479   1.960   2.445   2.290
 2247SOL     MW 8480   1.888   2.494   2.293
 2248SOL     OW 8481   3.454   3.717   3.718
 2248SOL    HW1 8482   3.499   3.641   3.683
 2248SOL    HW2 8483   3.492   3.730   3.805
 2248SOL     MW 8484   3.464   3.710   3.724
 2249SOL     OW 8485   3.054   3.236   2.444
 2249SOL    HW1 8486   3.077   3.187   2.522
 2249SOL    HW2 8487   3.135   3.278   2.416
 2249SOL     MW 8488   3.067   3.236   2.451
 2250SOL     OW 8489   3.194   2.215   3.461
 2250SOL    HW1 8490   3.101   2.199   3.448
 2250SOL    HW2 8491   3.220   2.153   3.529
 2250SOL     MW 8492   3.184   2.205   3.468
 2251SOL     OW 8493   3.560   2.311   2.971
 2251SOL    HW1 8494   3.493   2.344   3.031
 2251SOL    HW2 8495   3.603   2.389   2.937
 2251SOL     MW 8496   3.558   2.326   2.975
 2252SOL     OW 8497   3.738   3.031   2.941
 2252SOL    HW1 8498   3.731   2.971   2.866
 2252SOL    HW2 8499   3.664   3.091   2.930
 2252SOL     MW 8500   3.728   3.031   2.930
 2253SOL     OW 8501   3.120   2.893   2.859
 2253SOL    HW1 8502   3.134   2.865   2.950
 2253SOL    HW2 8503   3.206   2.924   2.831
 2253SOL     MW 8504   3.133   2.894   2.868
 2254SOL     OW 8505   3.696   2.519   3.680
 2254SOL    HW1 8506   3.733   2.464   3.749
 2254SOL    HW2 8507   3.721   2.476   3.598
 2254SOL     MW 8508   3.703   2.507   3.679
 2255SOL     OW 8509   3.194   1.903   2.080
 2255SOL    HW1 8510   3.268   1.947   2.123
 2255SOL    HW2 8511   3.118   1.957   2.102
 2255SOL     MW 8512   3.194   1.915   2.088
 2256SOL     OW 8513   3.254   2.678   2.358
 2256SOL    HW1 8514   3.169   2.648   2.328
 2256SOL    HW2 8515   3.246   2.685   2.453
 2256SOL     MW 8516   3.242   2.676   2.367
 2257SOL     OW 8517   2.330   3.141   3.089
 2257SOL    HW1 8518   2.342   3.168   3.180
 2257SOL    HW2 8519   2.311   3.222   3.042
 2257SOL     MW 8520   2.329   3.156   3.094
 2258SOL     OW 8521   3.370   3.198   3.306
 2258SOL    HW1 8522   3.355   3.127   3.369
 2258SOL    HW2 8523   3.416   3.156   3.234
 2258SOL     MW 8524   3.376   3.182   3.306
 2259SOL     OW 8525   2.444   2.929   3.423
 2259SOL    HW1 8526   2.481   2.934   3.335
 2259SOL    HW2 8527   2.483   3.002   3.470
 2259SOL     MW 8528   2.454   2.939   3.418
 2260SOL     OW 8529   2.624   2.972   3.235
 2260SOL    HW1 8530   2.683   2.918   3.288
 2260SOL    HW2 8531   2.639   2.944   3.145
 2260SOL     MW 8532   2.634   2.961   3.231
 2261SOL     OW 8533   2.627   2.344   2.084
 2261SOL    HW1 8534   2.700   2.393   2.047
 2261SOL    HW2 8535   2.643   2.253   2.058
 2261SOL     MW 8536   2.639   2.339   2.077
 2262SOL     OW 8537   3.435   3.461   3.407
 2262SOL    HW1 8538   3.477   3.446   3.492
 2262SOL    HW2 8539   3.426   3.374   3.369
 2262SOL     MW 8540   3.439   3.449   3.414
 2263SOL     OW 8541   3.095   1.940   2.998
 2263SOL    HW1 8542   3.150   1.949   2.920
 2263SOL    HW2 8543   3.150   1.974   3.069
 2263SOL     MW 8544   3.109   1.945   2.997
 2264SOL     OW 8545   2.102   2.853   2.182
 2264SOL    HW1 8546   2.039   2.869   2.111
 2264SOL    HW2 8547   2.049   2.816   2.253
 2264SOL     MW 8548   2.087   2.850   2.182
 2265SOL     OW 8549   2.458   3.207   2.041
 2265SOL    HW1 8550   2.473   3.183   2.133
 2265SOL    HW2 8551   2.366   3.185   2.025
 2265SOL     MW 8552   2.448   3.200   2.051
 2266SOL     OW 8553   2.997   3.438   2.193
 2266SOL    HW1 8554   3.005   3.356   2.144
 2266SOL    HW2 8555   2.916   3.477   2.160
 2266SOL     MW 8556   2.987   3.433   2.183
 2267SOL     OW 8557   2.256   3.596   2.762
 2267SOL    HW1 8558   2.260   3.507   2.797
 2267SOL    HW2 8559   2.282   3.587   2.671
 2267SOL     MW 8560   2.259   3.584   2.754
 2268SOL     OW 8561   2.873   3.074   3.005
 2268SOL    HW1 8562   2.805   3.008   3.021
 2268SOL    HW2 8563   2.891   3.068   2.912
 2268SOL     MW 8564   2.866   3.065   2.996
 2269SOL     OW 8565   2.866   2.213   2.826
 2269SOL    HW1 8566   2.796   2.165   2.871
 2269SOL    HW2 8567   2.898   2.276   2.890
 2269SOL     MW 8568   2.861   2.215   2.840
 2270SOL     OW 8569   2.517   2.649   3.446
 2270SOL    HW1 8570   2.510   2.744   3.434
 2270SOL    HW2 8571   2.526   2.638   3.541
 2270SOL     MW 8572   2.518   2.661   3.456
 2271SOL     OW 8573   3.322   1.927   3.171
 2271SOL    HW1 8574   3.393   1.873   3.135
 2271SOL    HW2 8575   3.321   1.906   3.264
 2271SOL     MW 8576   3.331   1.918   3.179
 2272SOL     OW 8577   3.522   3.457   3.655
 2272SOL    HW1 8578   3.495   3.454   3.746
 2272SOL    HW2 8579   3.618   3.461   3.658
 2272SOL     MW 8580   3.532   3.457   3.667
 2273SOL     OW 8581   2.649   3.412   2.715
 2273SOL    HW1 8582   2.577   3.349   2.728
 2273SOL    HW2 8583   2.610   3.497   2.733
 2273SOL     MW 8584   2.633   3.415   2.718
 2274SOL     OW 8585   2.969   2.260   2.363
 2274SOL    HW1 8586   2.991   2.197   2.295
 2274SOL    HW2 8587   2.874   2.252   2.374
 2274SOL     MW 8588   2.959   2.251   2.355
 2275SOL     OW 8589   2.054   1.950   2.295
 2275SOL    HW1 8590   2.125   1.971   2.234
 2275SOL    HW2 8591   2.008   1.878   2.253
 2275SOL     MW 8592   2.058   1.944   2.281
 2276SOL     OW 8593   3.623   3.324   2.395
 2276SOL    HW1 8594   3.593   3.257   2.456
 2276SOL    HW2 8595   3.717   3.330   2.409
 2276SOL     MW 8596   3.631   3.316   2.405
 2277SOL     OW 8597   3.179   3.001   2.325
 2277SOL    HW1 8598   3.151   3.087   2.358
 2277SOL    HW2 8599   3.207   3.017   2.235
 2277SOL     MW 8600   3.179   3.015   2.317
 2278SOL     OW 8601   2.841   1.921   2.378
 2278SOL    HW1 8602   2.878   1.980   2.443
 2278SOL    HW2 8603   2.818   1.977   2.304
 2278SOL     MW 8604   2.842   1.936   2.377
 2279SOL     OW 8605   2.070   2.643   3.379
 2279SOL    HW1 8606   2.091   2.712   3.317
 2279SOL    HW2 8607   2.150   2.590   3.384
 2279SOL     MW 8608   2.083   2.644   3.373
 2280SOL     OW 8609   3.606   2.734   2.501
 2280SOL    HW1 8610   3.700   2.723   2.489
 2280SOL    HW2 8611   3.582   2.806   2.442
 2280SOL     MW 8612   3.616   2.742   2.492
 2281SOL     OW 8613   2.221   1.945   3.096
 2281SOL    HW1 8614   2.264   2.029   3.116
 2281SOL    HW2 8615   2.294   1.883   3.089
 2281SOL     MW 8616   2.236   1.948   3.097
 2282SOL     OW 8617   2.262   2.612   2.274
 2282SOL    HW1 8618   2.262   2.707   2.259
 2282SOL    HW2 8619   2.339   2.596   2.328
 2282SOL     MW 8620   2.272   2.623   2.279
 2283SOL     OW 8621   2.021   2.343   2.563
 2283SOL    HW1 8622   2.083   2.350   2.636
 2283SOL    HW2 8623   2.021   2.250   2.540
 2283SOL     MW 8624   2.029   2.332   2.570
 2284SOL     OW 8625   3.568   3.683   2.095
 2284SOL    HW1 8626   3.635   3.716   2.035
 2284SOL    HW2 8627   3.525   3.762   2.129
 2284SOL     MW 8628   3.570   3.698   2.091
 2285SOL     OW 8629   3.374   3.737   3.446
 2285SOL    HW1 8630   3.377   3.643   3.429
 2285SOL    HW2 8631   3.397   3.745   3.538
 2285SOL     MW 8632   3.377   3.725   3.456
 2286SOL     OW 8633   2.507   2.074   3.152
 2286SOL    HW1 8634   2.438   2.137   3.173
 2286SOL    HW2 8635   2.534   2.038   3.237
 2286SOL     MW 8636   2.501   2.077   3.165
 2287SOL     OW 8637   1.890   2.915   2.021
 2287SOL    HW1 8638   1.859   2.980   2.084
 2287SOL    HW2 8639   1.839   2.837   2.040
 2287SOL     MW 8640   1.880   2.912   2.031
 2288SOL     OW 8641   3.302   1.927   2.769
 2288SOL    HW1 8642   3.390   1.936   2.806
 2288SOL    HW2 8643   3.312   1.868   2.695
 2288SOL     MW 8644   3.316   1.921   2.763
 2289SOL     OW 8645   3.334   2.666   2.613
 2289SOL    HW1 8646   3.414   2.681   2.562
 2289SOL    HW2 8647   3.327   2.571   2.619
 2289SOL     MW 8648   3.343   2.655   2.608
 2290SOL     OW 8649   2.474   3.715   1.963
 2290SOL    HW1 8650   2.379   3.715   1.955
 2290SOL    HW2 8651   2.490   3.661   2.041
 2290SOL     MW 8652   2.464   3.709   1.972
 2291SOL     OW 8653   2.202   2.892   3.558
 2291SOL    HW1 8654   2.156   2.808   3.560
 2291SOL    HW2 8655   2.259   2.886   3.482
 2291SOL     MW 8656   2.204   2.880   3.550
 2292SOL     OW 8657   3.319   2.535   1.879
 2292SOL    HW1 8658   3.247   2.511   1.821
 2292SOL    HW2 8659   3.385   2.572   1.821
 2292SOL     MW 8660   3.318   2.537   1.864
 2293SOL     OW 8661   2.453   3.267   2.559
 2293SOL    HW1 8662   2.518   3.200   2.580
 2293SOL    HW2 8663   2.505   3.344   2.536
 2293SOL     MW 8664   2.468   3.269   2.558
 2294SOL     OW 8665   3.213   3.253   2.804
 2294SOL    HW1 8666   3.186   3.337   2.769
 2294SOL    HW2 8667   3.173   3.248   2.891
 2294SOL     MW 8668   3.206   3.262   2.810
 2295SOL     OW 8669   3.132   3.201   3.072
 2295SOL    HW1 8670   3.143   3.168   3.161
 2295SOL    HW2 8671   3.051   3.160   3.041
 2295SOL     MW 8672   3.122   3.193   3.078
 2296SOL     OW 8673   2.145   2.559   2.842
 2296SOL    HW1 8674   2.095   2.558   2.923
 2296SOL    HW2 8675   2.165   2.651   2.826
 2296SOL     MW 8676   2.141   2.571   2.850
 2297SOL     OW 8677   3.212   3.323   3.604
 2297SOL    HW1 8678   3.212   3.417   3.620
 2297SOL    HW2 8679   3.257   3.313   3.520
 2297SOL     MW 8680   3.218   3.333   3.595
 2298SOL     OW 8681   3.451   2.041   2.165
 2298SOL    HW1 8682   3.444   2.045   2.260
 2298SOL    HW2 8683   3.463   2.132   2.138
 2298SOL     MW 8684   3.452   2.054   2.173
 2299SOL     OW 8685   2.740   2.604   2.279
 2299SOL    HW1 8686   2.720   2.590   2.186
 2299SOL    HW2 8687   2.833   2.583   2.286
 2299SOL     MW 8688   2.750   2.599   2.268
 2300SOL     OW 8689   2.067   2.227   3.583
 2300SOL    HW1 8690   2.024   2.286   3.520
 2300SOL    HW2 8691   2.135   2.282   3.623
 2300SOL     MW 8692   2.071   2.242   3.580
 2301SOL     OW 8693   3.179   2.847   3.128
 2301SOL    HW1 8694   3.242   2.844   3.201
 2301SOL    HW2 8695   3.095   2.865   3.170
 2301SOL     MW 8696   3.175   2.849   3.143
 2302SOL     OW 8697   3.518   2.024   2.907
 2302SOL    HW1 8698   3.563   1.942   2.926
 2302SOL    HW2 8699   3.538   2.080   2.983
 2302SOL     MW 8700   3.528   2.020   2.919
 2303SOL     OW 8701   3.603   3.060   2.626
 2303SOL    HW1 8702   3.582   3.006   2.549
 2303SOL    HW2 8703   3.699   3.058   2.630
 2303SOL     MW 8704   3.612   3.053   2.615
 2304SOL     OW 8705   2.295   3.205   3.369
 2304SOL    HW1 8706   2.216   3.155   3.392
 2304SOL    HW2 8707   2.365   3.164   3.419
 2304SOL     MW 8708   2.293   3.193   3.379
 2305SOL     OW 8709   2.179   1.994   2.052
 2305SOL    HW1 8710   2.108   2.049   2.020
 2305SOL    HW2 8711   2.221   1.960   1.973
 2305SOL     MW 8712   2.175   1.996   2.038
 2306SOL     OW 8713   1.935   2.093   1.901
 2306SOL    HW1 8714   1.902   2.172   1.945
 2306SOL    HW2 8715   1.990   2.126   1.830
 2306SOL     MW 8716   1.938   2.107   1.898
 2307SOL     OW 8717   3.241   3.439   2.307
 2307SOL    HW1 8718   3.304   3.429   2.236
 2307SOL    HW2 8719   3.158   3.459   2.262
 2307SOL     MW 8720   3.238   3.440   2.292
 2308SOL     OW 8721   3.604   2.707   3.993
 2308SOL    HW1 8722   3.645   2.649   4.058
 2308SOL    HW2 8723   3.511   2.699   4.010
 2308SOL     MW 8724   3.598   2.699   4.003
 2309SOL     OW 8725   3.514   3.593   4.364
 2309SOL    HW1 8726   3.526   3.539   4.442
 2309SOL    HW2 8727   3.551   3.541   4.293
 2309SOL     MW 8728   3.520   3.578   4.365
 2310SOL     OW 8729   3.450   3.033   4.969
 2310SOL    HW1 8730   3.371   2.998   4.927
 2310SOL    HW2 8731   3.477   3.105   4.913
 2310SOL     MW 8732   3.443   3.038   4.956
 2311SOL     OW 8733   2.682   2.346   4.235
 2311SOL    HW1 8734   2.657   2.434   4.263
 2311SOL    HW2 8735   2.679   2.349   4.139
 2311SOL     MW 8736   2.678   2.358   4.227
 2312SOL     OW 8737   2.124   2.374   4.163
 2312SOL    HW1 8738   2.156   2.462   4.145
 2312SOL    HW2 8739   2.112   2.372   4.258
 2312SOL     MW 8740   2.127   2.386   4.175
 2313SOL     OW 8741   2.610   3.056   4.425
 2313SOL    HW1 8742   2.690   3.059   4.477
 2313SOL    HW2 8743   2.638   3.023   4.339
 2313SOL     MW 8744   2.624   3.052   4.420
 2314SOL     OW 8745   2.635   3.397   5.328
 2314SOL    HW1 8746   2.719   3.423   5.367
 2314SOL    HW2 8747   2.659   3.341   5.254
 2314SOL     MW 8748   2.649   3.393   5.323
 2315SOL     OW 8749   2.387   2.560   4.416
 2315SOL    HW1 8750   2.372   2.480   4.467
 2315SOL    HW2 8751   2.469   2.595   4.450
 2315SOL     MW 8752   2.395   2.552   4.428
 2316SOL     OW 8753   2.529   2.386   4.793
 2316SOL    HW1 8754   2.435   2.382   4.811
 2316SOL    HW2 8755   2.559   2.295   4.802
 2316SOL     MW 8756   2.520   2.374   4.796
 2317SOL     OW 8757   1.972   3.646   4.572
 2317SOL    HW1 8758   2.061   3.638   4.607
 2317SOL    HW2 8759   1.936   3.558   4.577
 2317SOL     MW 8760   1.979   3.633   4.577
 2318SOL     OW 8761   3.237   3.038   3.941
 2318SOL    HW1 8762   3.155   3.074   3.907
 2318SOL    HW2 8763   3.305   3.081   3.890
 2318SOL     MW 8764   3.235   3.048   3.929
 2319SOL     OW 8765   2.236   3.173   4.607
 2319SOL    HW1 8766   2.212   3.226   4.683
 2319SOL    HW2 8767   2.292   3.231   4.555
 2319SOL     MW 8768   2.240   3.188   4.610
 2320SOL     OW 8769   2.798   2.817   4.417
 2320SOL    HW1 8770   2.712   2.804   4.457
 2320SOL    HW2 8771   2.851   2.744   4.449
 2320SOL     MW 8772   2.794   2.806   4.426
 2321SOL     OW 8773   2.206   3.469   5.202
 2321SOL    HW1 8774   2.114   3.445   5.187
 2321SOL    HW2 8775   2.250   3.386   5.219
 2321SOL     MW 8776   2.200   3.454   5.201
 2322SOL     OW 8777   3.662   2.180   4.590
 2322SOL    HW1 8778   3.599   2.160   4.659
 2322SOL    HW2 8779   3.652   2.109   4.527
 2322SOL     MW 8780   3.652   2.167   4.591
 2323SOL     OW 8781   2.286   2.152   4.102
 2323SOL    HW1 8782   2.260   2.114   4.018
 2323SOL    HW2 8783   2.223   2.222   4.118
 2323SOL     MW 8784   2.275   2.155   4.093
 2324SOL     OW 8785   2.121   3.113   4.139
 2324SOL    HW1 8786   2.069   3.181   4.095
 2324SOL    HW2 8787   2.118   3.039   4.079
 2324SOL     MW 8788   2.113   3.112   4.126
 2325SOL     OW 8789   2.783   3.576   3.917
 2325SOL    HW1 8790   2.738   3.592   4.000
 2325SOL    HW2 8791   2.714   3.541   3.859
 2325SOL     MW 8792   2.769   3.573   3.919
 2326SOL     OW 8793   3.718   2.349   3.892
 2326SOL    HW1 8794   3.627   2.351   3.920
 2326SOL    HW2 8795   3.763   2.411   3.950
 2326SOL     MW 8796   3.711   2.357   3.902
 2327SOL     OW 8797   3.463   2.952   4.242
 2327SOL    HW1 8798   3.373   2.952   4.277
 2327SOL    HW2 8799   3.456   2.998   4.159
 2327SOL     MW 8800   3.450   2.958   4.236
 2328SOL     OW 8801   2.004   3.467   4.866
 2328SOL    HW1 8802   1.987   3.413   4.943
 2328SOL    HW2 8803   1.992   3.557   4.896
 2328SOL     MW 8804   2.001   3.471   4.880
 2329SOL     OW 8805   3.370   2.930   4.634
 2329SOL    HW1 8806   3.373   2.864   4.565
 2329SOL    HW2 8807   3.455   2.973   4.630
 2329SOL     MW 8808   3.382   2.926   4.625
 2330SOL     OW 8809   2.990   2.533   4.203
 2330SOL    HW1 8810   3.016   2.557   4.114
 2330SOL    HW2 8811   2.972   2.440   4.199
 2330SOL     MW 8812   2.992   2.525   4.190
 2331SOL     OW 8813   2.311   3.569   4.372
 2331SOL    HW1 8814   2.343   3.657   4.350
 2331SOL    HW2 8815   2.264   3.541   4.294
 2331SOL     MW 8816   2.310   3.577   4.359
 2332SOL     OW 8817   3.695   1.931   4.421
 2332SOL    HW1 8818   3.749   1.882   4.483
 2332SOL    HW2 8819   3.638   1.865   4.382
 2332SOL     MW 8820   3.695   1.915   4.423
 2333SOL     OW 8821   2.027   3.629   3.949
 2333SOL    HW1 8822   2.056   3.719   3.941
 2333SOL    HW2 8823   1.977   3.612   3.870
 2333SOL     MW 8824   2.025   3.637   3.938
 2334SOL     OW 8825   3.431   3.437   3.920
 2334SOL    HW1 8826   3.479   3.506   3.966
 2334SOL    HW2 8827   3.352   3.481   3.889
 2334SOL     MW 8828   3.426   3.451   3.923
 2335SOL     OW 8829   2.829   2.562   3.864
 2335SOL    HW1 8830   2.831   2.509   3.785
 2335SOL    HW2 8831   2.917   2.599   3.870
 2335SOL     MW 8832   2.841   2.561   3.853
 2336SOL     OW 8833   3.443   2.488   4.200
 2336SOL    HW1 8834   3.482   2.488   4.287
 2336SOL    HW2 8835   3.384   2.564   4.200
 2336SOL     MW 8836   3.440   2.499   4.211
 2337SOL     OW 8837   2.929   2.481   4.923
 2337SOL    HW1 8838   3.004   2.510   4.870
 2337SOL    HW2 8839   2.861   2.546   4.907
 2337SOL     MW 8840   2.930   2.493   4.913
 2338SOL     OW 8841   3.630   2.374   4.366
 2338SOL    HW1 8842   3.719   2.343   4.383
 2338SOL    HW2 8843   3.573   2.314   4.414
 2338SOL     MW 8844   3.633   2.362   4.375
 2339SOL     OW 8845   2.999   3.181   3.956
 2339SOL    HW1 8846   2.949   3.183   4.038
 2339SOL    HW2 8847   2.933   3.199   3.888
 2339SOL     MW 8848   2.985   3.183   3.958
 2340SOL     OW 8849   2.003   2.261   4.758
 2340SOL    HW1 8850   1.975   2.352   4.767
 2340SOL    HW2 8851   1.940   2.222   4.697
 2340SOL     MW 8852   1.990   2.267   4.752
 2341SOL     OW 8853   2.462   3.599   4.064
 2341SOL    HW1 8854   2.383   3.557   4.097
 2341SOL    HW2 8855   2.528   3.582   4.131
 2341SOL     MW 8856   2.461   3.591   4.077
 2342SOL     OW 8857   2.598   3.014   3.771
 2342SOL    HW1 8858   2.520   2.960   3.758
 2342SOL    HW2 8859   2.569   3.087   3.824
 2342SOL     MW 8860   2.584   3.016   3.776
 2343SOL     OW 8861   3.516   3.463   4.632
 2343SOL    HW1 8862   3.545   3.530   4.693
 2343SOL    HW2 8863   3.497   3.387   4.687
 2343SOL     MW 8864   3.518   3.463   4.647
 2344SOL     OW 8865   3.179   3.530   3.839
 2344SOL    HW1 8866   3.105   3.493   3.889
 2344SOL    HW2 8867   3.187   3.620   3.872
 2344SOL     MW 8868   3.170   3.537   3.851
 2345SOL     OW 8869   1.987   2.536   4.928
 2345SOL    HW1 8870   2.049   2.566   4.994
 2345SOL    HW2 8871   1.921   2.605   4.922
 2345SOL     MW 8872   1.986   2.549   4.935
 2346SOL     OW 8873   3.403   3.204   3.781
 2346SOL    HW1 8874   3.350   3.253   3.717
 2346SOL    HW2 8875   3.434   3.270   3.842
 2346SOL     MW 8876   3.401   3.218   3.779
 2347SOL     OW 8877   2.134   2.964   4.887
 2347SOL    HW1 8878   2.187   3.039   4.912
 2347SOL    HW2 8879   2.053   3.002   4.853
 2347SOL     MW 8880   2.130   2.979   4.887
 2348SOL     OW 8881   2.611   1.991   5.254
 2348SOL    HW1 8882   2.588   1.899   5.256
 2348SOL    HW2 8883   2.697   1.993   5.211
 2348SOL     MW 8884   2.618   1.981   5.250
 2349SOL     OW 8885   2.830   3.388   4.367
 2349SOL    HW1 8886   2.913   3.342   4.351
 2349SOL    HW2 8887   2.820   3.387   4.463
 2349SOL     MW 8888   2.840   3.381   4.377
 2350SOL     OW 8889   2.563   3.445   3.772
 2350SOL    HW1 8890   2.503   3.514   3.742
 2350SOL    HW2 8891   2.508   3.387   3.825
 2350SOL     MW 8892   2.547   3.447   3.774
 2351SOL     OW 8893   3.001   2.090   3.995
 2351SOL    HW1 8894   2.934   2.066   3.932
 2351SOL    HW2 8895   3.066   2.139   3.944
 2351SOL     MW 8896   3.001   2.092   3.980
 2352SOL     OW 8897   3.319   2.390   4.502
 2352SOL    HW1 8898   3.264   2.311   4.501
 2352SOL    HW2 8899   3.301   2.431   4.586
 2352SOL     MW 8900   3.309   2.385   4.511
 2353SOL     OW 8901   2.194   3.489   4.161
 2353SOL    HW1 8902   2.155   3.536   4.087
 2353SOL    HW2 8903   2.128   3.424   4.186
 2353SOL     MW 8904   2.181   3.487   4.155
 2354SOL     OW 8905   3.243   3.666   4.387
 2354SOL    HW1 8906   3.186   3.619   4.326
 2354SOL    HW2 8907   3.329   3.627   4.374
 2354SOL     MW 8908   3.246   3.657   4.377
 2355SOL     OW 8909   3.196   2.142   4.518
 2355SOL    HW1 8910   3.224   2.074   4.579
 2355SOL    HW2 8911   3.110   2.113   4.488
 2355SOL     MW 8912   3.189   2.129   4.522
 2356SOL     OW 8913   2.001   3.076   4.452
 2356SOL    HW1 8914   2.065   3.108   4.515
 2356SOL    HW2 8915   2.050   3.012   4.400
 2356SOL     MW 8916   2.016   3.072   4.453
 2357SOL     OW 8917   3.176   2.246   3.853
 2357SOL    HW1 8918   3.149   2.312   3.789
 2357SOL    HW2 8919   3.246   2.289   3.903
 2357SOL     MW 8920   3.181   2.259   3.850
 2358SOL     OW 8921   3.349   2.802   3.995
 2358SOL    HW1 8922   3.316   2.891   3.985
 2358SOL    HW2 8923   3.314   2.773   4.080
 2358SOL     MW 8924   3.339   2.811   4.006
 2359SOL     OW 8925   2.279   3.389   4.824
 2359SOL    HW1 8926   2.324   3.451   4.881
 2359SOL    HW2 8927   2.186   3.408   4.837
 2359SOL     MW 8928   2.272   3.399   4.831
 2360SOL     OW 8929   2.343   2.840   3.787
 2360SOL    HW1 8930   2.266   2.853   3.843
 2360SOL    HW2 8931   2.307   2.804   3.706
 2360SOL     MW 8932   2.329   2.836   3.784
 2361SOL     OW 8933   2.996   2.813   4.030
 2361SOL    HW1 8934   2.906   2.834   4.005
 2361SOL    HW2 8935   3.023   2.886   4.086
 2361SOL     MW 8936   2.988   2.825   4.033
 2362SOL     OW 8937   2.496   3.162   4.722
 2362SOL    HW1 8938   2.489   3.141   4.816
 2362SOL    HW2 8939   2.414   3.130   4.685
 2362SOL     MW 8940   2.484   3.156   4.729
 2363SOL     OW 8941   3.696   2.096   4.997
 2363SOL    HW1 8942   3.677   2.163   4.932
 2363SOL    HW2 8943   3.753   2.034   4.952
 2363SOL     MW 8944   3.700   2.097   4.983
 2364SOL     OW 8945   2.383   3.169   4.186
 2364SOL    HW1 8946   2.376   3.201   4.276
 2364SOL    HW2 8947   2.293   3.153   4.158
 2364SOL     MW 8948   2.371   3.171   4.193
 2365SOL     OW 8949   3.500   3.622   4.860
 2365SOL    HW1 8950   3.543   3.592   4.940
 2365SOL    HW2 8951   3.419   3.570   4.857
 2365SOL     MW 8952   3.495   3.611   4.870
 2366SOL     OW 8953   2.386   2.453   3.900
 2366SOL    HW1 8954   2.352   2.509   3.970
 2366SOL    HW2 8955   2.457   2.403   3.940
 2366SOL     MW 8956   2.392   2.454   3.914
 2367SOL     OW 8957   3.482   3.204   4.722
 2367SOL    HW1 8958   3.517   3.186   4.635
 2367SOL    HW2 8959   3.387   3.205   4.709
 2367SOL     MW 8960   3.474   3.201   4.709
 2368SOL     OW 8961   3.442   2.339   3.964
 2368SOL    HW1 8962   3.434   2.410   3.901
 2368SOL    HW2 8963   3.460   2.383   4.047
 2368SOL     MW 8964   3.443   2.353   3.966
 2369SOL     OW 8965   3.111   2.601   3.939
 2369SOL    HW1 8966   3.158   2.619   3.858
 2369SOL    HW2 8967   3.077   2.685   3.967
 2369SOL     MW 8968   3.113   2.615   3.932
 2370SOL     OW 8969   2.224   2.779   4.433
 2370SOL    HW1 8970   2.282   2.835   4.381
 2370SOL    HW2 8971   2.268   2.694   4.435
 2370SOL     MW 8972   2.237   2.776   4.426
 2371SOL     OW 8973   3.364   2.131   4.270
 2371SOL    HW1 8974   3.286   2.081   4.295
 2371SOL    HW2 8975   3.335   2.222   4.270
 2371SOL     MW 8976   3.350   2.135   4.273
 2372SOL     OW 8977   2.950   2.093   4.429
 2372SOL    HW1 8978   2.970   2.168   4.373
 2372SOL    HW2 8979   2.930   2.132   4.514
 2372SOL     MW 8980   2.951   2.109   4.433
 2373SOL     OW 8981   2.846   3.343   3.761
 2373SOL    HW1 8982   2.873   3.421   3.713
 2373SOL    HW2 8983   2.753   3.358   3.780
 2373SOL     MW 8984   2.837   3.356   3.757
 2374SOL     OW 8985   1.931   3.379   4.605
 2374SOL    HW1 8986   1.963   3.383   4.696
 2374SOL    HW2 8987   1.836   3.387   4.613
 2374SOL     MW 8988   1.923   3.382   4.618
 2375SOL     OW 8989   1.886   2.505   4.152
 2375SOL    HW1 8990   1.826   2.477   4.222
 2375SOL    HW2 8991   1.960   2.445   4.158
 2375SOL     MW 8992   1.888   2.494   4.161
 2376SOL     OW 8993   3.054   3.236   4.312
 2376SOL    HW1 8994   3.077   3.187   4.390
 2376SOL    HW2 8995   3.135   3.278   4.284
 2376SOL     MW 8996   3.067   3.236   4.319
 2377SOL     OW 8997   2.312   2.244   5.041
 2377SOL    HW1 8998   2.345   2.325   5.081
 2377SOL    HW2 8999   2.285   2.270   4.953
 2377SOL     MW 9000   2.311   2.258   5.035
 2378SOL     OW 9001   2.266   2.211   4.777
 2378SOL    HW1 9002   2.296   2.125   4.748
 2378SOL    HW2 9003   2.171   2.204   4.780
 2378SOL     MW 9004   2.258   2.200   4.775
 2379SOL     OW 9005   3.560   2.311   4.839
 2379SOL    HW1 9006   3.493   2.344   4.899
 2379SOL    HW2 9007   3.603   2.389   4.805
 2379SOL     MW 9008   3.558   2.326   4.843
 2380SOL     OW 9009   3.738   3.031   4.809
 2380SOL    HW1 9010   3.731   2.971   4.734
 2380SOL    HW2 9011   3.664   3.091   4.798
 2380SOL     MW 9012   3.728   3.031   4.798
 2381SOL     OW 9013   3.120   2.893   4.727
 2381SOL    HW1 9014   3.134   2.865   4.818
 2381SOL    HW2 9015   3.206   2.924   4.699
 2381SOL     MW 9016   3.133   2.894   4.736
 2382SOL     OW 9017   3.254   2.678   4.226
 2382SOL    HW1 9018   3.169   2.648   4.196
 2382SOL    HW2 9019   3.246   2.685   4.321
 2382SOL     MW 9020   3.242   2.676   4.235
 2383SOL     OW 9021   2.614   2.121   4.780
 2383SOL    HW1 9022   2.587   2.123   4.871
 2383SOL    HW2 9023   2.544   2.073   4.735
 2383SOL     MW 9024   2.602   2.117   4.787
 2384SOL     OW 9025   2.444   2.929   5.291
 2384SOL    HW1 9026   2.481   2.934   5.203
 2384SOL    HW2 9027   2.483   3.002   5.338
 2384SOL     MW 9028   2.454   2.939   5.286
 2385SOL     OW 9029   2.627   2.344   3.952
 2385SOL    HW1 9030   2.700   2.393   3.915
 2385SOL    HW2 9031   2.643   2.253   3.926
 2385SOL     MW 9032   2.639   2.339   3.945
 2386SOL     OW 9033   3.095   1.940   4.866
 2386SOL    HW1 9034   3.150   1.949   4.788
 2386SOL    HW2 9035   3.150   1.974   4.937
 2386SOL     MW 9036   3.109   1.945   4.865
 2387SOL     OW 9037   2.102   2.853   4.050
 2387SOL    HW1 9038   2.039   2.869   3.979
 2387SOL    HW2 9039   2.049   2.816   4.121
 2387SOL     MW 9040   2.087   2.850   4.050
 2388SOL     OW 9041   2.458   3.207   3.909
 2388SOL    HW1 9042   2.473   3.183   4.001
 2388SOL    HW2 9043   2.366   3.185   3.893
 2388SOL     MW 9044   2.448   3.200   3.919
 2389SOL     OW 9045   2.997   3.438   4.061
 2389SOL    HW1 9046   3.005   3.356   4.012
 2389SOL    HW2 9047   2.916   3.477   4.028
 2389SOL     MW 9048   2.987   3.433   4.051
 2390SOL     OW 9049   2.256   3.596   4.630
 2390SOL    HW1 9050   2.260   3.507   4.665
 2390SOL    HW2 9051   2.282   3.587   4.539
 2390SOL     MW 9052   2.259   3.584   4.622
 2391SOL     OW 9053   2.873   3.074   4.873
 2391SOL    HW1 9054   2.805   3.008   4.889
 2391SOL    HW2 9055   2.891   3.068   4.780
 2391SOL     MW 9056   2.866   3.065   4.864
 2392SOL     OW 9057   2.866   2.213   4.694
 2392SOL    HW1 9058   2.796   2.165   4.739
 2392SOL    HW2 9059   2.898   2.276   4.758
 2392SOL     MW 9060   2.861   2.215   4.708
 2393SOL     OW 9061   2.333   2.319   4.507
 2393SOL    HW1 9062   2.404   2.267   4.470
 2393SOL    HW2 9063   2.319   2.284   4.594
 2393SOL     MW 9064   2.341   2.308   4.514
 2394SOL     OW 9065   2.649   3.412   4.583
 2394SOL    HW1 9066   2.577   3.349   4.596
 2394SOL    HW2 9067   2.610   3.497   4.601
 2394SOL     MW 9068   2.633   3.415   4.586
 2395SOL     OW 9069   3.179   3.001   4.193
 2395SOL    HW1 9070   3.151   3.087   4.226
 2395SOL    HW2 9071   3.207   3.017   4.103
 2395SOL     MW 9072   3.179   3.015   4.185
 2396SOL     OW 9073   3.694   2.803   4.668
 2396SOL    HW1 9074   3.685   2.835   4.579
 2396SOL    HW2 9075   3.647   2.719   4.668
 2396SOL     MW 9076   3.687   2.796   4.658
 2397SOL     OW 9077   2.070   2.643   5.247
 2397SOL    HW1 9078   2.091   2.712   5.185
 2397SOL    HW2 9079   2.150   2.590   5.252
 2397SOL     MW 9080   2.083   2.644   5.241
 2398SOL     OW 9081   3.606   2.734   4.369
 2398SOL    HW1 9082   3.700   2.723   4.357
 2398SOL    HW2 9083   3.582   2.806   4.310
 2398SOL     MW 9084   3.616   2.742   4.360
 2399SOL     OW 9085   2.262   2.612   4.142
 2399SOL    HW1 9086   2.262   2.707   4.127
 2399SOL    HW2 9087   2.339   2.596   4.196
 2399SOL     MW 9088   2.272   2.623   4.147
 2400SOL     OW 9089   3.568   3.683   3.963
 2400SOL    HW1 9090   3.635   3.716   3.903
 2400SOL    HW2 9091   3.525   3.762   3.997
 2400SOL     MW 9092   3.570   3.698   3.959
 2401SOL     OW 9093   2.703   2.604   4.915
 2401SOL    HW1 9094   2.661   2.522   4.891
 2401SOL    HW2 9095   2.704   2.603   5.011
 2401SOL     MW 9096   2.696   2.593   4.924
 2402SOL     OW 9097   1.890   2.915   3.889
 2402SOL    HW1 9098   1.859   2.980   3.952
 2402SOL    HW2 9099   1.839   2.837   3.908
 2402SOL     MW 9100   1.880   2.912   3.899
 2403SOL     OW 9101   3.302   1.927   4.637
 2403SOL    HW1 9102   3.390   1.936   4.674
 2403SOL    HW2 9103   3.312   1.868   4.563
 2403SOL     MW 9104   3.316   1.921   4.631
 2404SOL     OW 9105   3.334   2.666   4.481
 2404SOL    HW1 9106   3.414   2.681   4.430
 2404SOL    HW2 9107   3.327   2.571   4.487
 2404SOL     MW 9108   3.343   2.655   4.476
 2405SOL     OW 9109   2.474   3.715   3.831
 2405SOL    HW1 9110   2.379   3.715   3.823
 2405SOL    HW2 9111   2.490   3.661   3.909
 2405SOL     MW 9112   2.464   3.709   3.840
 2406SOL     OW 9113   3.319   2.535   3.747
 2406SOL    HW1 9114   3.247   2.511   3.689
 2406SOL    HW2 9115   3.385   2.572   3.689
 2406SOL     MW 9116   3.318   2.537   3.732
 2407SOL     OW 9117   2.453   3.267   4.427
 2407SOL    HW1 9118   2.518   3.200   4.448
 2407SOL    HW2 9119   2.505   3.344   4.404
 2407SOL     MW 9120   2.468   3.269   4.426
 2408SOL     OW 9121   2.714   2.432   4.557
 2408SOL    HW1 9122   2.654   2.450   4.629
 2408SOL    HW2 9123   2.748   2.344   4.576
 2408SOL     MW 9124   2.710   2.422   4.570
 2409SOL     OW 9125   2.939   3.015   4.576
 2409SOL    HW1 9126   3.031   2.996   4.594
 2409SOL    HW2 9127   2.912   2.945   4.516
 2409SOL     MW 9128   2.947   3.003   4.570
 2410SOL     OW 9129   2.732   2.835   3.931
 2410SOL    HW1 9130   2.718   2.747   3.896
 2410SOL    HW2 9131   2.683   2.892   3.872
 2410SOL     MW 9132   2.724   2.830   3.919
 2411SOL     OW 9133   3.213   3.253   4.672
 2411SOL    HW1 9134   3.186   3.337   4.637
 2411SOL    HW2 9135   3.173   3.248   4.759
 2411SOL     MW 9136   3.206   3.262   4.678
 2412SOL     OW 9137   3.132   3.201   4.940
 2412SOL    HW1 9138   3.143   3.168   5.029
 2412SOL    HW2 9139   3.051   3.160   4.909
 2412SOL     MW 9140   3.122   3.193   4.946
 2413SOL     OW 9141   2.145   2.559   4.710
 2413SOL    HW1 9142   2.095   2.558   4.791
 2413SOL    HW2 9143   2.165   2.651   4.694
 2413SOL     MW 9144   2.141   2.571   4.718
 2414SOL     OW 9145   3.451   2.041   4.033
 2414SOL    HW1 9146   3.444   2.045   4.128
 2414SOL    HW2 9147   3.463   2.132   4.006
 2414SOL     MW 9148   3.452   2.054   4.041
 2415SOL     OW 9149   2.740   2.604   4.147
 2415SOL    HW1 9150   2.720   2.590   4.054
 2415SOL    HW2 9151   2.833   2.583   4.154
 2415SOL     MW 9152   2.750   2.599   4.136
 2416SOL     OW 9153   3.179   2.847   4.996
 2416SOL    HW1 9154   3.242   2.844   5.069
 2416SOL    HW2 9155   3.095   2.865   5.038
 2416SOL     MW 9156   3.175   2.849   5.011
 2417SOL     OW 9157   3.518   2.024   4.775
 2417SOL    HW1 9158   3.563   1.942   4.794
 2417SOL    HW2 9159   3.538   2.080   4.851
 2417SOL     MW 9160   3.528   2.020   4.787
 2418SOL     OW 9161   3.603   3.060   4.494
 2418SOL    HW1 9162   3.582   3.006   4.417
 2418SOL    HW2 9163   3.699   3.058   4.498
 2418SOL     MW 9164   3.612   3.053   4.483
 2419SOL     OW 9165   2.179   1.994   3.920
 2419SOL    HW1 9166   2.108   2.049   3.888
 2419SOL    HW2 9167   2.221   1.960   3.841
 2419SOL     MW 9168   2.175   1.996   3.906
 2420SOL     OW 9169   1.935   2.093   3.769
 2420SOL    HW1 9170   1.902   2.172   3.813
 2420SOL    HW2 9171   1.990   2.126   3.698
 2420SOL     MW 9172   1.938   2.107   3.766
 2421SOL     OW 9173   1.969   3.350   3.958
 2421SOL    HW1 9174   1.986   3.434   4.000
 2421SOL    HW2 9175   2.004   3.359   3.870
 2421SOL     MW 9176   1.974   3.363   3.952
 2422SOL     OW 9177   3.241   3.439   4.175
 2422SOL    HW1 9178   3.304   3.429   4.104
 2422SOL    HW2 9179   3.158   3.459   4.130
 2422SOL     MW 9180   3.238   3.440   4.160
 2423SOL     OW 9181   3.604   4.575   0.257
 2423SOL    HW1 9182   3.645   4.517   0.322
 2423SOL    HW2 9183   3.511   4.567   0.274
 2423SOL     MW 9184   3.598   4.567   0.267
 2424SOL     OW 9185   3.470   4.507   1.252
 2424SOL    HW1 9186   3.425   4.574   1.303
 2424SOL    HW2 9187   3.558   4.543   1.238
 2424SOL     MW 9188   3.476   4.520   1.256
 2425SOL     OW 9189   2.682   4.214   0.499
 2425SOL    HW1 9190   2.657   4.302   0.527
 2425SOL    HW2 9191   2.679   4.217   0.403
 2425SOL     MW 9192   2.678   4.226   0.491
 2426SOL     OW 9193   2.124   4.242   0.427
 2426SOL    HW1 9194   2.156   4.330   0.409
 2426SOL    HW2 9195   2.112   4.240   0.522
 2426SOL     MW 9196   2.127   4.254   0.439
 2427SOL     OW 9197   2.523   3.997   0.514
 2427SOL    HW1 9198   2.581   4.073   0.516
 2427SOL    HW2 9199   2.458   4.018   0.447
 2427SOL     MW 9200   2.522   4.009   0.505
 2428SOL     OW 9201   2.387   4.428   0.680
 2428SOL    HW1 9202   2.372   4.348   0.731
 2428SOL    HW2 9203   2.469   4.463   0.714
 2428SOL     MW 9204   2.395   4.420   0.692
 2429SOL     OW 9205   2.529   4.254   1.057
 2429SOL    HW1 9206   2.435   4.250   1.075
 2429SOL    HW2 9207   2.559   4.163   1.066
 2429SOL     MW 9208   2.520   4.242   1.060
 2430SOL     OW 9209   2.275   4.668   0.961
 2430SOL    HW1 9210   2.230   4.675   0.877
 2430SOL    HW2 9211   2.255   4.751   1.005
 2430SOL     MW 9212   2.267   4.680   0.955
 2431SOL     OW 9213   2.798   4.685   0.681
 2431SOL    HW1 9214   2.712   4.672   0.721
 2431SOL    HW2 9215   2.851   4.612   0.713
 2431SOL     MW 9216   2.794   4.674   0.690
 2432SOL     OW 9217   3.662   4.048   0.854
 2432SOL    HW1 9218   3.599   4.028   0.923
 2432SOL    HW2 9219   3.652   3.977   0.791
 2432SOL     MW 9220   3.652   4.035   0.855
 2433SOL     OW 9221   3.263   4.455   1.578
 2433SOL    HW1 9222   3.332   4.393   1.555
 2433SOL    HW2 9223   3.188   4.429   1.525
 2433SOL     MW 9224   3.263   4.442   1.569
 2434SOL     OW 9225   2.999   4.842   1.570
 2434SOL    HW1 9226   2.984   4.935   1.555
 2434SOL    HW2 9227   3.094   4.832   1.570
 2434SOL     MW 9228   3.008   4.852   1.567
 2435SOL     OW 9229   2.795   4.266   1.771
 2435SOL    HW1 9230   2.885   4.267   1.738
 2435SOL    HW2 9231   2.754   4.191   1.729
 2435SOL     MW 9232   2.801   4.256   1.762
 2436SOL     OW 9233   3.370   4.798   0.898
 2436SOL    HW1 9234   3.373   4.732   0.829
 2436SOL    HW2 9235   3.455   4.841   0.894
 2436SOL     MW 9236   3.382   4.794   0.889
 2437SOL     OW 9237   3.695   3.799   0.685
 2437SOL    HW1 9238   3.749   3.750   0.747
 2437SOL    HW2 9239   3.638   3.733   0.646
 2437SOL     MW 9240   3.695   3.783   0.687
 2438SOL     OW 9241   2.814   3.752   1.098
 2438SOL    HW1 9242   2.773   3.830   1.060
 2438SOL    HW2 9243   2.908   3.770   1.093
 2438SOL     MW 9244   2.820   3.764   1.093
 2439SOL     OW 9245   2.829   4.430   0.128
 2439SOL    HW1 9246   2.831   4.377   0.049
 2439SOL    HW2 9247   2.917   4.467   0.134
 2439SOL     MW 9248   2.841   4.429   0.117
 2440SOL     OW 9249   3.443   4.356   0.464
 2440SOL    HW1 9250   3.482   4.356   0.551
 2440SOL    HW2 9251   3.384   4.432   0.464
 2440SOL     MW 9252   3.440   4.367   0.475
 2441SOL     OW 9253   2.760   4.723   1.593
 2441SOL    HW1 9254   2.737   4.703   1.683
 2441SOL    HW2 9255   2.845   4.767   1.598
 2441SOL     MW 9256   2.767   4.726   1.605
 2442SOL     OW 9257   2.840   3.860   1.353
 2442SOL    HW1 9258   2.846   3.822   1.266
 2442SOL    HW2 9259   2.829   3.954   1.338
 2442SOL     MW 9260   2.841   3.868   1.341
 2443SOL     OW 9261   3.479   4.317   1.464
 2443SOL    HW1 9262   3.460   4.226   1.443
 2443SOL    HW2 9263   3.457   4.366   1.385
 2443SOL     MW 9264   3.474   4.310   1.451
 2444SOL     OW 9265   2.926   4.055   1.570
 2444SOL    HW1 9266   2.892   4.094   1.489
 2444SOL    HW2 9267   2.904   3.963   1.563
 2444SOL     MW 9268   2.919   4.048   1.560
 2445SOL     OW 9269   3.335   4.869   1.646
 2445SOL    HW1 9270   3.417   4.910   1.676
 2445SOL    HW2 9271   3.298   4.831   1.726
 2445SOL     MW 9272   3.341   4.870   1.661
 2446SOL     OW 9273   2.056   3.956   0.659
 2446SOL    HW1 9274   2.047   3.896   0.585
 2446SOL    HW2 9275   1.989   3.927   0.722
 2446SOL     MW 9276   2.046   3.943   0.657
 2447SOL     OW 9277   2.003   4.129   1.022
 2447SOL    HW1 9278   1.975   4.220   1.031
 2447SOL    HW2 9279   1.940   4.090   0.961
 2447SOL     MW 9280   1.990   4.135   1.016
 2448SOL     OW 9281   3.590   4.987   1.725
 2448SOL    HW1 9282   3.640   4.913   1.757
 2448SOL    HW2 9283   3.536   5.014   1.800
 2448SOL     MW 9284   3.590   4.981   1.738
 2449SOL     OW 9285   2.598   4.882   0.035
 2449SOL    HW1 9286   2.520   4.828   0.022
 2449SOL    HW2 9287   2.569   4.955   0.088
 2449SOL     MW 9288   2.584   4.884   0.040
 2450SOL     OW 9289   3.724   4.622   1.227
 2450SOL    HW1 9290   3.740   4.660   1.140
 2450SOL    HW2 9291   3.758   4.688   1.288
 2450SOL     MW 9292   3.731   4.635   1.223
 2451SOL     OW 9293   1.987   4.404   1.192
 2451SOL    HW1 9294   2.049   4.434   1.258
 2451SOL    HW2 9295   1.921   4.473   1.186
 2451SOL     MW 9296   1.986   4.417   1.199
 2452SOL     OW 9297   3.403   5.072   0.045
 2452SOL    HW1 9298   3.350   5.121  -0.019
 2452SOL    HW2 9299   3.434   5.138   0.106
 2452SOL     MW 9300   3.401   5.086   0.043
 2453SOL     OW 9301   2.628   3.961   0.100
 2453SOL    HW1 9302   2.576   3.881   0.088
 2453SOL    HW2 9303   2.715   3.938   0.068
 2453SOL     MW 9304   2.631   3.947   0.094
 2454SOL     OW 9305   2.134   4.832   1.151
 2454SOL    HW1 9306   2.187   4.907   1.176
 2454SOL    HW2 9307   2.053   4.870   1.117
 2454SOL     MW 9308   2.130   4.847   1.151
 2455SOL     OW 9309   2.674   4.736   1.139
 2455SOL    HW1 9310   2.702   4.645   1.151
 2455SOL    HW2 9311   2.603   4.730   1.075
 2455SOL     MW 9312   2.667   4.724   1.134
 2456SOL     OW 9313   2.295   4.383   1.557
 2456SOL    HW1 9314   2.375   4.433   1.543
 2456SOL    HW2 9315   2.286   4.377   1.652
 2456SOL     MW 9316   2.304   4.389   1.567
 2457SOL     OW 9317   3.272   3.908   1.828
 2457SOL    HW1 9318   3.328   3.835   1.854
 2457SOL    HW2 9319   3.242   3.946   1.910
 2457SOL     MW 9320   3.276   3.903   1.841
 2458SOL     OW 9321   3.662   4.401   0.945
 2458SOL    HW1 9322   3.751   4.431   0.927
 2458SOL    HW2 9323   3.642   4.341   0.874
 2458SOL     MW 9324   3.671   4.398   0.934
 2459SOL     OW 9325   3.001   3.958   0.259
 2459SOL    HW1 9326   2.934   3.934   0.196
 2459SOL    HW2 9327   3.066   4.007   0.208
 2459SOL     MW 9328   3.001   3.960   0.244
 2460SOL     OW 9329   3.068   4.480   0.967
 2460SOL    HW1 9330   3.081   4.574   0.977
 2460SOL    HW2 9331   3.029   4.470   0.881
 2460SOL     MW 9332   3.064   4.491   0.957
 2461SOL     OW 9333   2.520   4.675   0.771
 2461SOL    HW1 9334   2.431   4.666   0.804
 2461SOL    HW2 9335   2.524   4.765   0.739
 2461SOL     MW 9336   2.509   4.686   0.771
 2462SOL     OW 9337   3.319   4.258   0.766
 2462SOL    HW1 9338   3.264   4.179   0.765
 2462SOL    HW2 9339   3.301   4.299   0.850
 2462SOL     MW 9340   3.309   4.253   0.775
 2463SOL     OW 9341   2.938   4.462   0.723
 2463SOL    HW1 9342   2.875   4.394   0.747
 2463SOL    HW2 9343   2.958   4.443   0.631
 2463SOL     MW 9344   2.932   4.449   0.715
 2464SOL     OW 9345   2.686   4.766   0.449
 2464SOL    HW1 9346   2.688   4.740   0.356
 2464SOL    HW2 9347   2.744   4.703   0.492
 2464SOL     MW 9348   2.694   4.755   0.443
 2465SOL     OW 9349   3.196   4.010   0.782
 2465SOL    HW1 9350   3.224   3.942   0.843
 2465SOL    HW2 9351   3.110   3.981   0.752
 2465SOL     MW 9352   3.189   3.997   0.786
 2466SOL     OW 9353   2.501   5.020   1.698
 2466SOL    HW1 9354   2.549   5.103   1.685
 2466SOL    HW2 9355   2.558   4.968   1.754
 2466SOL     MW 9356   2.515   5.024   1.704
 2467SOL     OW 9357   3.176   4.114   0.117
 2467SOL    HW1 9358   3.149   4.180   0.053
 2467SOL    HW2 9359   3.246   4.157   0.167
 2467SOL     MW 9360   3.181   4.127   0.114
 2468SOL     OW 9361   2.844   3.819   0.054
 2468SOL    HW1 9362   2.900   3.811  -0.024
 2468SOL    HW2 9363   2.821   3.729   0.076
 2468SOL     MW 9364   2.849   3.806   0.047
 2469SOL     OW 9365   3.349   4.670   0.259
 2469SOL    HW1 9366   3.316   4.759   0.249
 2469SOL    HW2 9367   3.314   4.641   0.344
 2469SOL     MW 9368   3.339   4.679   0.270
 2470SOL     OW 9369   2.255   3.767   1.789
 2470SOL    HW1 9370   2.183   3.732   1.737
 2470SOL    HW2 9371   2.313   3.808   1.724
 2470SOL     MW 9372   2.253   3.768   1.774
 2471SOL     OW 9373   3.719   4.786   1.442
 2471SOL    HW1 9374   3.634   4.799   1.401
 2471SOL    HW2 9375   3.699   4.750   1.529
 2471SOL     MW 9376   3.706   4.782   1.447
 2472SOL     OW 9377   2.343   4.708   0.051
 2472SOL    HW1 9378   2.266   4.721   0.107
 2472SOL    HW2 9379   2.307   4.672  -0.030
 2472SOL     MW 9380   2.329   4.704   0.048
 2473SOL     OW 9381   3.360   4.040   1.388
 2473SOL    HW1 9382   3.307   4.042   1.468
 2473SOL    HW2 9383   3.345   3.953   1.351
 2473SOL     MW 9384   3.352   4.030   1.393
 2474SOL     OW 9385   3.696   3.964   1.261
 2474SOL    HW1 9386   3.677   4.031   1.196
 2474SOL    HW2 9387   3.753   3.902   1.216
 2474SOL     MW 9388   3.700   3.965   1.247
 2475SOL     OW 9389   2.625   3.797   0.701
 2475SOL    HW1 9390   2.554   3.858   0.683
 2475SOL    HW2 9391   2.676   3.794   0.620
 2475SOL     MW 9392   2.621   3.803   0.688
 2476SOL     OW 9393   3.372   4.666   1.464
 2476SOL    HW1 9394   3.377   4.719   1.544
 2476SOL    HW2 9395   3.334   4.583   1.492
 2476SOL     MW 9396   3.368   4.661   1.479
 2477SOL     OW 9397   3.012   3.801   1.710
 2477SOL    HW1 9398   3.007   3.708   1.691
 2477SOL    HW2 9399   3.095   3.812   1.756
 2477SOL     MW 9400   3.020   3.790   1.714
 2478SOL     OW 9401   2.911   4.720   1.355
 2478SOL    HW1 9402   2.954   4.755   1.433
 2478SOL    HW2 9403   2.894   4.797   1.301
 2478SOL     MW 9404   2.914   4.735   1.358
 2479SOL     OW 9405   2.302   3.862   0.657
 2479SOL    HW1 9406   2.352   3.905   0.588
 2479SOL    HW2 9407   2.217   3.906   0.657
 2479SOL     MW 9408   2.299   3.875   0.648
 2480SOL     OW 9409   2.061   4.924   1.517
 2480SOL    HW1 9410   2.089   4.877   1.595
 2480SOL    HW2 9411   1.982   4.879   1.488
 2480SOL     MW 9412   2.054   4.913   1.523
 2481SOL     OW 9413   2.569   4.251   1.484
 2481SOL    HW1 9414   2.541   4.339   1.508
 2481SOL    HW2 9415   2.538   4.195   1.555
 2481SOL     MW 9416   2.561   4.254   1.496
 2482SOL     OW 9417   3.111   4.469   0.203
 2482SOL    HW1 9418   3.158   4.487   0.122
 2482SOL    HW2 9419   3.077   4.553   0.231
 2482SOL     MW 9420   3.113   4.483   0.196
 2483SOL     OW 9421   3.364   3.999   0.534
 2483SOL    HW1 9422   3.286   3.949   0.559
 2483SOL    HW2 9423   3.335   4.090   0.534
 2483SOL     MW 9424   3.350   4.003   0.537
 2484SOL     OW 9425   2.950   3.961   0.693
 2484SOL    HW1 9426   2.970   4.036   0.637
 2484SOL    HW2 9427   2.930   4.000   0.778
 2484SOL     MW 9428   2.951   3.977   0.697
 2485SOL     OW 9429   3.710   4.734   1.712
 2485SOL    HW1 9430   3.623   4.714   1.748
 2485SOL    HW2 9431   3.764   4.660   1.737
 2485SOL     MW 9432   3.705   4.723   1.720
 2486SOL     OW 9433   1.886   4.373   0.416
 2486SOL    HW1 9434   1.826   4.345   0.486
 2486SOL    HW2 9435   1.960   4.313   0.422
 2486SOL     MW 9436   1.888   4.362   0.425
 2487SOL     OW 9437   3.054   5.104   0.576
 2487SOL    HW1 9438   3.077   5.055   0.654
 2487SOL    HW2 9439   3.135   5.146   0.548
 2487SOL     MW 9440   3.067   5.104   0.583
 2488SOL     OW 9441   2.266   4.079   1.041
 2488SOL    HW1 9442   2.296   3.993   1.012
 2488SOL    HW2 9443   2.171   4.072   1.044
 2488SOL     MW 9444   2.258   4.068   1.039
 2489SOL     OW 9445   3.095   4.288   1.732
 2489SOL    HW1 9446   3.147   4.223   1.685
 2489SOL    HW2 9447   3.053   4.339   1.662
 2489SOL     MW 9448   3.096   4.285   1.715
 2490SOL     OW 9449   3.194   4.083   1.593
 2490SOL    HW1 9450   3.101   4.067   1.580
 2490SOL    HW2 9451   3.220   4.021   1.661
 2490SOL     MW 9452   3.184   4.073   1.600
 2491SOL     OW 9453   2.409   3.857   0.932
 2491SOL    HW1 9454   2.419   3.766   0.958
 2491SOL    HW2 9455   2.365   3.853   0.847
 2491SOL     MW 9456   2.405   3.845   0.924
 2492SOL     OW 9457   3.560   4.179   1.103
 2492SOL    HW1 9458   3.493   4.212   1.163
 2492SOL    HW2 9459   3.603   4.257   1.069
 2492SOL     MW 9460   3.558   4.194   1.107
 2493SOL     OW 9461   3.120   4.761   0.991
 2493SOL    HW1 9462   3.134   4.733   1.082
 2493SOL    HW2 9463   3.206   4.792   0.963
 2493SOL     MW 9464   3.133   4.762   1.000
 2494SOL     OW 9465   3.203   4.256   1.270
 2494SOL    HW1 9466   3.224   4.257   1.177
 2494SOL    HW2 9467   3.248   4.178   1.303
 2494SOL     MW 9468   3.210   4.246   1.262
 2495SOL     OW 9469   3.696   4.387   1.812
 2495SOL    HW1 9470   3.733   4.332   1.881
 2495SOL    HW2 9471   3.721   4.344   1.730
 2495SOL     MW 9472   3.703   4.375   1.811
 2496SOL     OW 9473   3.243   4.685   1.863
 2496SOL    HW1 9474   3.309   4.633   1.817
 2496SOL    HW2 9475   3.263   4.672   1.956
 2496SOL     MW 9476   3.254   4.676   1.870
 2497SOL     OW 9477   3.194   3.771   0.212
 2497SOL    HW1 9478   3.268   3.815   0.255
 2497SOL    HW2 9479   3.118   3.825   0.234
 2497SOL     MW 9480   3.194   3.783   0.220
 2498SOL     OW 9481   3.254   4.546   0.490
 2498SOL    HW1 9482   3.169   4.516   0.460
 2498SOL    HW2 9483   3.246   4.553   0.585
 2498SOL     MW 9484   3.242   4.544   0.499
 2499SOL     OW 9485   2.614   3.989   1.044
 2499SOL    HW1 9486   2.587   3.991   1.135
 2499SOL    HW2 9487   2.544   3.941   0.999
 2499SOL     MW 9488   2.602   3.985   1.051
 2500SOL     OW 9489   2.444   4.797   1.555
 2500SOL    HW1 9490   2.481   4.802   1.467
 2500SOL    HW2 9491   2.483   4.870   1.602
 2500SOL     MW 9492   2.454   4.807   1.550
 2501SOL     OW 9493   2.624   4.840   1.367
 2501SOL    HW1 9494   2.683   4.786   1.420
 2501SOL    HW2 9495   2.639   4.812   1.277
 2501SOL     MW 9496   2.634   4.829   1.363
 2502SOL     OW 9497   2.627   4.212   0.216
 2502SOL    HW1 9498   2.700   4.261   0.179
 2502SOL    HW2 9499   2.643   4.121   0.190
 2502SOL     MW 9500   2.639   4.207   0.209
 2503SOL     OW 9501   3.095   3.808   1.130
 2503SOL    HW1 9502   3.150   3.817   1.052
 2503SOL    HW2 9503   3.150   3.842   1.201
 2503SOL     MW 9504   3.109   3.813   1.129
 2504SOL     OW 9505   2.102   4.721   0.314
 2504SOL    HW1 9506   2.039   4.737   0.243
 2504SOL    HW2 9507   2.049   4.684   0.385
 2504SOL     MW 9508   2.087   4.718   0.314
 2505SOL     OW 9509   2.866   4.081   0.958
 2505SOL    HW1 9510   2.796   4.033   1.003
 2505SOL    HW2 9511   2.898   4.144   1.022
 2505SOL     MW 9512   2.861   4.083   0.972
 2506SOL     OW 9513   2.517   4.517   1.578
 2506SOL    HW1 9514   2.510   4.612   1.566
 2506SOL    HW2 9515   2.526   4.506   1.673
 2506SOL     MW 9516   2.518   4.529   1.588
 2507SOL     OW 9517   2.333   4.187   0.771
 2507SOL    HW1 9518   2.404   4.135   0.734
 2507SOL    HW2 9519   2.319   4.152   0.858
 2507SOL     MW 9520   2.341   4.176   0.778
 2508SOL     OW 9521   2.649   5.280   0.847
 2508SOL    HW1 9522   2.577   5.217   0.860
 2508SOL    HW2 9523   2.610   5.365   0.865
 2508SOL     MW 9524   2.633   5.283   0.850
 2509SOL     OW 9525   2.969   4.128   0.495
 2509SOL    HW1 9526   2.991   4.065   0.427
 2509SOL    HW2 9527   2.874   4.120   0.506
 2509SOL     MW 9528   2.959   4.119   0.487
 2510SOL     OW 9529   3.179   4.869   0.457
 2510SOL    HW1 9530   3.151   4.955   0.490
 2510SOL    HW2 9531   3.207   4.885   0.367
 2510SOL     MW 9532   3.179   4.883   0.449
 2511SOL     OW 9533   2.841   3.789   0.510
 2511SOL    HW1 9534   2.878   3.848   0.575
 2511SOL    HW2 9535   2.818   3.845   0.436
 2511SOL     MW 9536   2.842   3.804   0.509
 2512SOL     OW 9537   2.070   4.511   1.511
 2512SOL    HW1 9538   2.091   4.580   1.449
 2512SOL    HW2 9539   2.150   4.458   1.516
 2512SOL     MW 9540   2.083   4.512   1.505
 2513SOL     OW 9541   3.606   4.602   0.633
 2513SOL    HW1 9542   3.700   4.591   0.621
 2513SOL    HW2 9543   3.582   4.674   0.574
 2513SOL     MW 9544   3.616   4.610   0.624
 2514SOL     OW 9545   2.055   4.526   1.778
 2514SOL    HW1 9546   1.981   4.470   1.804
 2514SOL    HW2 9547   2.050   4.529   1.683
 2514SOL     MW 9548   2.044   4.519   1.768
 2515SOL     OW 9549   3.038   4.339   1.470
 2515SOL    HW1 9550   3.074   4.312   1.386
 2515SOL    HW2 9551   2.951   4.373   1.449
 2515SOL     MW 9552   3.032   4.340   1.457
 2516SOL     OW 9553   2.703   4.472   1.179
 2516SOL    HW1 9554   2.661   4.390   1.155
 2516SOL    HW2 9555   2.704   4.471   1.275
 2516SOL     MW 9556   2.696   4.461   1.188
 2517SOL     OW 9557   2.507   3.942   1.284
 2517SOL    HW1 9558   2.438   4.005   1.305
 2517SOL    HW2 9559   2.534   3.906   1.369
 2517SOL     MW 9560   2.501   3.945   1.297
 2518SOL     OW 9561   1.890   4.783   0.153
 2518SOL    HW1 9562   1.859   4.848   0.216
 2518SOL    HW2 9563   1.839   4.705   0.172
 2518SOL     MW 9564   1.880   4.780   0.163
 2519SOL     OW 9565   3.302   3.795   0.901
 2519SOL    HW1 9566   3.390   3.804   0.938
 2519SOL    HW2 9567   3.312   3.736   0.827
 2519SOL     MW 9568   3.316   3.789   0.895
 2520SOL     OW 9569   3.334   4.534   0.745
 2520SOL    HW1 9570   3.414   4.549   0.694
 2520SOL    HW2 9571   3.327   4.439   0.751
 2520SOL     MW 9572   3.343   4.523   0.740
 2521SOL     OW 9573   2.784   4.460   1.442
 2521SOL    HW1 9574   2.853   4.527   1.439
 2521SOL    HW2 9575   2.717   4.498   1.498
 2521SOL     MW 9576   2.785   4.473   1.449
 2522SOL     OW 9577   2.202   4.760   1.690
 2522SOL    HW1 9578   2.156   4.676   1.692
 2522SOL    HW2 9579   2.259   4.754   1.614
 2522SOL     MW 9580   2.204   4.748   1.682
 2523SOL     OW 9581   3.319   4.403   0.011
 2523SOL    HW1 9582   3.247   4.379  -0.047
 2523SOL    HW2 9583   3.385   4.440  -0.047
 2523SOL     MW 9584   3.318   4.405  -0.004
 2524SOL     OW 9585   2.714   4.300   0.821
 2524SOL    HW1 9586   2.654   4.318   0.893
 2524SOL    HW2 9587   2.748   4.212   0.840
 2524SOL     MW 9588   2.710   4.290   0.834
 2525SOL     OW 9589   3.655   3.799   1.490
 2525SOL    HW1 9590   3.576   3.845   1.518
 2525SOL    HW2 9591   3.690   3.853   1.419
 2525SOL     MW 9592   3.649   3.812   1.484
 2526SOL     OW 9593   2.939   4.883   0.840
 2526SOL    HW1 9594   3.031   4.864   0.858
 2526SOL    HW2 9595   2.912   4.813   0.780
 2526SOL     MW 9596   2.947   4.871   0.834
 2527SOL     OW 9597   2.732   4.703   0.195
 2527SOL    HW1 9598   2.718   4.615   0.160
 2527SOL    HW2 9599   2.683   4.760   0.136
 2527SOL     MW 9600   2.724   4.698   0.183
 2528SOL     OW 9601   2.067   4.095   1.715
 2528SOL    HW1 9602   2.024   4.154   1.652
 2528SOL    HW2 9603   2.135   4.150   1.755
 2528SOL     MW 9604   2.071   4.110   1.712
 2529SOL     OW 9605   3.179   4.715   1.260
 2529SOL    HW1 9606   3.242   4.712   1.333
 2529SOL    HW2 9607   3.095   4.733   1.302
 2529SOL     MW 9608   3.175   4.717   1.275
 2530SOL     OW 9609   3.518   3.892   1.039
 2530SOL    HW1 9610   3.563   3.810   1.058
 2530SOL    HW2 9611   3.538   3.948   1.115
 2530SOL     MW 9612   3.528   3.888   1.051
 2531SOL     OW 9613   1.966   3.735   1.138
 2531SOL    HW1 9614   1.957   3.736   1.043
 2531SOL    HW2 9615   2.060   3.747   1.153
 2531SOL     MW 9616   1.978   3.738   1.129
 2532SOL     OW 9617   3.303   4.359   1.020
 2532SOL    HW1 9618   3.226   4.405   0.986
 2532SOL    HW2 9619   3.360   4.428   1.054
 2532SOL     MW 9620   3.300   4.374   1.020
 2533SOL     OW 9621   3.470   4.507   3.120
 2533SOL    HW1 9622   3.425   4.574   3.171
 2533SOL    HW2 9623   3.558   4.543   3.106
 2533SOL     MW 9624   3.476   4.520   3.124
 2534SOL     OW 9625   2.398   4.758   2.354
 2534SOL    HW1 9626   2.488   4.733   2.338
 2534SOL    HW2 9627   2.394   4.851   2.331
 2534SOL     MW 9628   2.410   4.767   2.349
 2535SOL     OW 9629   2.682   4.214   2.367
 2535SOL    HW1 9630   2.657   4.302   2.395
 2535SOL    HW2 9631   2.679   4.217   2.271
 2535SOL     MW 9632   2.678   4.226   2.359
 2536SOL     OW 9633   2.124   4.242   2.295
 2536SOL    HW1 9634   2.156   4.330   2.277
 2536SOL    HW2 9635   2.112   4.240   2.390
 2536SOL     MW 9636   2.127   4.254   2.307
 2537SOL     OW 9637   2.202   4.655   3.196
 2537SOL    HW1 9638   2.265   4.602   3.147
 2537SOL    HW2 9639   2.183   4.729   3.139
 2537SOL     MW 9640   2.208   4.657   3.183
 2538SOL     OW 9641   2.523   3.997   2.382
 2538SOL    HW1 9642   2.581   4.073   2.384
 2538SOL    HW2 9643   2.458   4.018   2.315
 2538SOL     MW 9644   2.522   4.009   2.373
 2539SOL     OW 9645   2.387   4.428   2.548
 2539SOL    HW1 9646   2.372   4.348   2.599
 2539SOL    HW2 9647   2.469   4.463   2.582
 2539SOL     MW 9648   2.395   4.420   2.560
 2540SOL     OW 9649   2.529   4.254   2.925
 2540SOL    HW1 9650   2.435   4.250   2.943
 2540SOL    HW2 9651   2.559   4.163   2.934
 2540SOL     MW 9652   2.520   4.242   2.928
 2541SOL     OW 9653   2.798   4.685   2.549
 2541SOL    HW1 9654   2.712   4.672   2.589
 2541SOL    HW2 9655   2.851   4.612   2.581
 2541SOL     MW 9656   2.794   4.674   2.558
 2542SOL     OW 9657   3.662   4.048   2.722
 2542SOL    HW1 9658   3.599   4.028   2.791
 2542SOL    HW2 9659   3.652   3.977   2.659
 2542SOL     MW 9660   3.652   4.035   2.723
 2543SOL     OW 9661   2.286   4.020   2.234
 2543SOL    HW1 9662   2.260   3.982   2.150
 2543SOL    HW2 9663   2.223   4.090   2.250
 2543SOL     MW 9664   2.275   4.023   2.225
 2544SOL     OW 9665   3.718   4.217   2.024
 2544SOL    HW1 9666   3.627   4.219   2.052
 2544SOL    HW2 9667   3.763   4.279   2.082
 2544SOL     MW 9668   3.711   4.225   2.034
 2545SOL     OW 9669   3.463   4.820   2.374
 2545SOL    HW1 9670   3.373   4.820   2.409
 2545SOL    HW2 9671   3.456   4.866   2.291
 2545SOL     MW 9672   3.450   4.826   2.368
 2546SOL     OW 9673   3.263   4.455   3.446
 2546SOL    HW1 9674   3.332   4.393   3.423
 2546SOL    HW2 9675   3.188   4.429   3.393
 2546SOL     MW 9676   3.263   4.442   3.437
 2547SOL     OW 9677   2.999   4.842   3.438
 2547SOL    HW1 9678   2.984   4.935   3.423
 2547SOL    HW2 9679   3.094   4.832   3.438
 2547SOL     MW 9680   3.008   4.852   3.435
 2548SOL     OW 9681   2.795   4.266   3.639
 2548SOL    HW1 9682   2.885   4.267   3.606
 2548SOL    HW2 9683   2.754   4.191   3.597
 2548SOL     MW 9684   2.801   4.256   3.630
 2549SOL     OW 9685   2.990   4.401   2.335
 2549SOL    HW1 9686   3.016   4.425   2.246
 2549SOL    HW2 9687   2.972   4.308   2.331
 2549SOL     MW 9688   2.992   4.393   2.322
 2550SOL     OW 9689   3.655   5.021   2.186
 2550SOL    HW1 9690   3.611   5.062   2.261
 2550SOL    HW2 9691   3.712   5.089   2.151
 2550SOL     MW 9692   3.657   5.035   2.191
 2551SOL     OW 9693   2.575   4.070   3.589
 2551SOL    HW1 9694   2.585   3.996   3.529
 2551SOL    HW2 9695   2.611   4.039   3.672
 2551SOL     MW 9696   2.581   4.056   3.591
 2552SOL     OW 9697   2.814   3.752   2.966
 2552SOL    HW1 9698   2.773   3.830   2.928
 2552SOL    HW2 9699   2.908   3.770   2.961
 2552SOL     MW 9700   2.820   3.764   2.961
 2553SOL     OW 9701   2.829   4.430   1.996
 2553SOL    HW1 9702   2.831   4.377   1.917
 2553SOL    HW2 9703   2.917   4.467   2.002
 2553SOL     MW 9704   2.841   4.429   1.985
 2554SOL     OW 9705   2.760   4.723   3.461
 2554SOL    HW1 9706   2.737   4.703   3.551
 2554SOL    HW2 9707   2.845   4.767   3.466
 2554SOL     MW 9708   2.767   4.726   3.473
 2555SOL     OW 9709   2.840   3.860   3.221
 2555SOL    HW1 9710   2.846   3.822   3.134
 2555SOL    HW2 9711   2.829   3.954   3.206
 2555SOL     MW 9712   2.841   3.868   3.209
 2556SOL     OW 9713   2.929   4.349   3.055
 2556SOL    HW1 9714   3.004   4.378   3.002
 2556SOL    HW2 9715   2.861   4.414   3.039
 2556SOL     MW 9716   2.930   4.361   3.045
 2557SOL     OW 9717   3.479   4.317   3.332
 2557SOL    HW1 9718   3.460   4.226   3.311
 2557SOL    HW2 9719   3.457   4.366   3.253
 2557SOL     MW 9720   3.474   4.310   3.319
 2558SOL     OW 9721   2.926   4.055   3.438
 2558SOL    HW1 9722   2.892   4.094   3.357
 2558SOL    HW2 9723   2.904   3.963   3.431
 2558SOL     MW 9724   2.919   4.048   3.428
 2559SOL     OW 9725   3.630   4.242   2.498
 2559SOL    HW1 9726   3.719   4.211   2.515
 2559SOL    HW2 9727   3.573   4.182   2.546
 2559SOL     MW 9728   3.633   4.230   2.507
 2560SOL     OW 9729   2.056   3.956   2.527
 2560SOL    HW1 9730   2.047   3.896   2.453
 2560SOL    HW2 9731   1.989   3.927   2.590
 2560SOL     MW 9732   2.046   3.943   2.525
 2561SOL     OW 9733   2.003   4.129   2.890
 2561SOL    HW1 9734   1.975   4.220   2.899
 2561SOL    HW2 9735   1.940   4.090   2.829
 2561SOL     MW 9736   1.990   4.135   2.884
 2562SOL     OW 9737   3.590   4.987   3.593
 2562SOL    HW1 9738   3.640   4.913   3.625
 2562SOL    HW2 9739   3.536   5.014   3.668
 2562SOL     MW 9740   3.590   4.981   3.606
 2563SOL     OW 9741   2.598   4.882   1.903
 2563SOL    HW1 9742   2.520   4.828   1.890
 2563SOL    HW2 9743   2.569   4.955   1.956
 2563SOL     MW 9744   2.584   4.884   1.908
 2564SOL     OW 9745   3.724   4.622   3.095
 2564SOL    HW1 9746   3.740   4.660   3.008
 2564SOL    HW2 9747   3.758   4.688   3.156
 2564SOL     MW 9748   3.731   4.635   3.091
 2565SOL     OW 9749   1.987   4.404   3.060
 2565SOL    HW1 9750   2.049   4.434   3.126
 2565SOL    HW2 9751   1.921   4.473   3.054
 2565SOL     MW 9752   1.986   4.417   3.067
 2566SOL     OW 9753   2.134   4.832   3.019
 2566SOL    HW1 9754   2.187   4.907   3.044
 2566SOL    HW2 9755   2.053   4.870   2.985
 2566SOL     MW 9756   2.130   4.847   3.019
 2567SOL     OW 9757   2.674   4.736   3.007
 2567SOL    HW1 9758   2.702   4.645   3.019
 2567SOL    HW2 9759   2.603   4.730   2.943
 2567SOL     MW 9760   2.667   4.724   3.002
 2568SOL     OW 9761   1.989   4.601   2.425
 2568SOL    HW1 9762   2.080   4.616   2.452
 2568SOL    HW2 9763   1.992   4.522   2.371
 2568SOL     MW 9764   2.001   4.593   2.423
 2569SOL     OW 9765   2.225   4.309   3.679
 2569SOL    HW1 9766   2.172   4.389   3.686
 2569SOL    HW2 9767   2.295   4.321   3.744
 2569SOL     MW 9768   2.227   4.322   3.687
 2570SOL     OW 9769   2.295   4.383   3.425
 2570SOL    HW1 9770   2.375   4.433   3.411
 2570SOL    HW2 9771   2.286   4.377   3.520
 2570SOL     MW 9772   2.304   4.389   3.435
 2571SOL     OW 9773   3.272   3.908   3.696
 2571SOL    HW1 9774   3.328   3.835   3.722
 2571SOL    HW2 9775   3.242   3.946   3.778
 2571SOL     MW 9776   3.276   3.903   3.709
 2572SOL     OW 9777   3.662   4.401   2.813
 2572SOL    HW1 9778   3.751   4.431   2.795
 2572SOL    HW2 9779   3.642   4.341   2.742
 2572SOL     MW 9780   3.671   4.398   2.802
 2573SOL     OW 9781   3.513   4.580   3.693
 2573SOL    HW1 9782   3.568   4.504   3.674
 2573SOL    HW2 9783   3.515   4.588   3.788
 2573SOL     MW 9784   3.521   4.571   3.701
 2574SOL     OW 9785   3.001   3.958   2.127
 2574SOL    HW1 9786   2.934   3.934   2.064
 2574SOL    HW2 9787   3.066   4.007   2.076
 2574SOL     MW 9788   3.001   3.960   2.112
 2575SOL     OW 9789   2.808   4.142   3.212
 2575SOL    HW1 9790   2.727   4.183   3.240
 2575SOL    HW2 9791   2.855   4.210   3.164
 2575SOL     MW 9792   2.803   4.157   3.210
 2576SOL     OW 9793   3.068   4.480   2.835
 2576SOL    HW1 9794   3.081   4.574   2.845
 2576SOL    HW2 9795   3.029   4.470   2.749
 2576SOL     MW 9796   3.064   4.491   2.825
 2577SOL     OW 9797   2.520   4.675   2.639
 2577SOL    HW1 9798   2.431   4.666   2.672
 2577SOL    HW2 9799   2.524   4.765   2.607
 2577SOL     MW 9800   2.509   4.686   2.639
 2578SOL     OW 9801   2.290   3.945   3.451
 2578SOL    HW1 9802   2.211   3.963   3.503
 2578SOL    HW2 9803   2.285   4.007   3.378
 2578SOL     MW 9804   2.280   3.955   3.448
 2579SOL     OW 9805   2.686   4.766   2.317
 2579SOL    HW1 9806   2.688   4.740   2.224
 2579SOL    HW2 9807   2.744   4.703   2.360
 2579SOL     MW 9808   2.694   4.755   2.311
 2580SOL     OW 9809   3.196   4.010   2.650
 2580SOL    HW1 9810   3.224   3.942   2.711
 2580SOL    HW2 9811   3.110   3.981   2.620
 2580SOL     MW 9812   3.189   3.997   2.654
 2581SOL     OW 9813   2.501   5.020   3.566
 2581SOL    HW1 9814   2.549   5.103   3.553
 2581SOL    HW2 9815   2.558   4.968   3.622
 2581SOL     MW 9816   2.515   5.024   3.572
 2582SOL     OW 9817   3.176   4.114   1.985
 2582SOL    HW1 9818   3.149   4.180   1.921
 2582SOL    HW2 9819   3.246   4.157   2.035
 2582SOL     MW 9820   3.181   4.127   1.982
 2583SOL     OW 9821   2.255   3.767   3.657
 2583SOL    HW1 9822   2.183   3.732   3.605
 2583SOL    HW2 9823   2.313   3.808   3.592
 2583SOL     MW 9824   2.253   3.768   3.642
 2584SOL     OW 9825   3.719   4.786   3.310
 2584SOL    HW1 9826   3.634   4.799   3.269
 2584SOL    HW2 9827   3.699   4.750   3.397
 2584SOL     MW 9828   3.706   4.782   3.315
 2585SOL     OW 9829   2.343   4.708   1.919
 2585SOL    HW1 9830   2.266   4.721   1.975
 2585SOL    HW2 9831   2.307   4.672   1.838
 2585SOL     MW 9832   2.329   4.704   1.916
 2586SOL     OW 9833   2.996   4.681   2.162
 2586SOL    HW1 9834   2.906   4.702   2.137
 2586SOL    HW2 9835   3.023   4.754   2.218
 2586SOL     MW 9836   2.988   4.693   2.165
 2587SOL     OW 9837   3.360   4.040   3.256
 2587SOL    HW1 9838   3.307   4.042   3.336
 2587SOL    HW2 9839   3.345   3.953   3.219
 2587SOL     MW 9840   3.352   4.030   3.261
 2588SOL     OW 9841   3.696   3.964   3.129
 2588SOL    HW1 9842   3.677   4.031   3.064
 2588SOL    HW2 9843   3.753   3.902   3.084
 2588SOL     MW 9844   3.700   3.965   3.115
 2589SOL     OW 9845   2.625   3.797   2.569
 2589SOL    HW1 9846   2.554   3.858   2.551
 2589SOL    HW2 9847   2.676   3.794   2.488
 2589SOL     MW 9848   2.621   3.803   2.556
 2590SOL     OW 9849   2.585   4.454   3.699
 2590SOL    HW1 9850   2.655   4.396   3.671
 2590SOL    HW2 9851   2.528   4.399   3.754
 2590SOL     MW 9852   2.587   4.441   3.703
 2591SOL     OW 9853   3.012   3.801   3.578
 2591SOL    HW1 9854   3.007   3.708   3.559
 2591SOL    HW2 9855   3.095   3.812   3.624
 2591SOL     MW 9856   3.020   3.790   3.582
 2592SOL     OW 9857   2.386   4.321   2.032
 2592SOL    HW1 9858   2.352   4.377   2.102
 2592SOL    HW2 9859   2.457   4.271   2.072
 2592SOL     MW 9860   2.392   4.322   2.046
 2593SOL     OW 9861   2.911   4.720   3.223
 2593SOL    HW1 9862   2.954   4.755   3.301
 2593SOL    HW2 9863   2.894   4.797   3.169
 2593SOL     MW 9864   2.914   4.735   3.226
 2594SOL     OW 9865   2.302   3.862   2.525
 2594SOL    HW1 9866   2.352   3.905   2.456
 2594SOL    HW2 9867   2.217   3.906   2.525
 2594SOL     MW 9868   2.299   3.875   2.516
 2595SOL     OW 9869   2.569   4.251   3.352
 2595SOL    HW1 9870   2.541   4.339   3.376
 2595SOL    HW2 9871   2.538   4.195   3.423
 2595SOL     MW 9872   2.561   4.254   3.364
 2596SOL     OW 9873   3.111   4.469   2.071
 2596SOL    HW1 9874   3.158   4.487   1.990
 2596SOL    HW2 9875   3.077   4.553   2.099
 2596SOL     MW 9876   3.113   4.483   2.064
 2597SOL     OW 9877   2.224   4.647   2.565
 2597SOL    HW1 9878   2.282   4.703   2.513
 2597SOL    HW2 9879   2.268   4.562   2.567
 2597SOL     MW 9880   2.237   4.644   2.558
 2598SOL     OW 9881   3.364   3.999   2.402
 2598SOL    HW1 9882   3.286   3.949   2.427
 2598SOL    HW2 9883   3.335   4.090   2.402
 2598SOL     MW 9884   3.350   4.003   2.405
 2599SOL     OW 9885   2.950   3.961   2.561
 2599SOL    HW1 9886   2.970   4.036   2.505
 2599SOL    HW2 9887   2.930   4.000   2.646
 2599SOL     MW 9888   2.951   3.977   2.565
 2600SOL     OW 9889   3.710   4.734   3.580
 2600SOL    HW1 9890   3.623   4.714   3.616
 2600SOL    HW2 9891   3.764   4.660   3.605
 2600SOL     MW 9892   3.705   4.723   3.588
 2601SOL     OW 9893   1.886   4.373   2.284
 2601SOL    HW1 9894   1.826   4.345   2.354
 2601SOL    HW2 9895   1.960   4.313   2.290
 2601SOL     MW 9896   1.888   4.362   2.293
 2602SOL     OW 9897   3.054   5.104   2.444
 2602SOL    HW1 9898   3.077   5.055   2.522
 2602SOL    HW2 9899   3.135   5.146   2.416
 2602SOL     MW 9900   3.067   5.104   2.451
 2603SOL     OW 9901   2.266   4.079   2.909
 2603SOL    HW1 9902   2.296   3.993   2.880
 2603SOL    HW2 9903   2.171   4.072   2.912
 2603SOL     MW 9904   2.258   4.068   2.907
 2604SOL     OW 9905   3.194   4.083   3.461
 2604SOL    HW1 9906   3.101   4.067   3.448
 2604SOL    HW2 9907   3.220   4.021   3.529
 2604SOL     MW 9908   3.184   4.073   3.468
 2605SOL     OW 9909   2.409   3.857   2.800
 2605SOL    HW1 9910   2.419   3.766   2.826
 2605SOL    HW2 9911   2.365   3.853   2.715
 2605SOL     MW 9912   2.405   3.845   2.792
 2606SOL     OW 9913   3.738   4.899   2.941
 2606SOL    HW1 9914   3.731   4.839   2.866
 2606SOL    HW2 9915   3.664   4.959   2.930
 2606SOL     MW 9916   3.728   4.899   2.930
 2607SOL     OW 9917   3.203   4.256   3.138
 2607SOL    HW1 9918   3.224   4.257   3.045
 2607SOL    HW2 9919   3.248   4.178   3.171
 2607SOL     MW 9920   3.210   4.246   3.130
 2608SOL     OW 9921   3.243   4.685   3.731
 2608SOL    HW1 9922   3.309   4.633   3.685
 2608SOL    HW2 9923   3.263   4.672   3.824
 2608SOL     MW 9924   3.254   4.676   3.738
 2609SOL     OW 9925   3.194   3.771   2.080
 2609SOL    HW1 9926   3.268   3.815   2.123
 2609SOL    HW2 9927   3.118   3.825   2.102
 2609SOL     MW 9928   3.194   3.783   2.088
 2610SOL     OW 9929   3.254   4.546   2.358
 2610SOL    HW1 9930   3.169   4.516   2.328
 2610SOL    HW2 9931   3.246   4.553   2.453
 2610SOL     MW 9932   3.242   4.544   2.367
 2611SOL     OW 9933   2.614   3.989   2.912
 2611SOL    HW1 9934   2.587   3.991   3.003
 2611SOL    HW2 9935   2.544   3.941   2.867
 2611SOL     MW 9936   2.602   3.985   2.919
 2612SOL     OW 9937   2.624   4.840   3.235
 2612SOL    HW1 9938   2.683   4.786   3.288
 2612SOL    HW2 9939   2.639   4.812   3.145
 2612SOL     MW 9940   2.634   4.829   3.231
 2613SOL     OW 9941   3.095   3.808   2.998
 2613SOL    HW1 9942   3.150   3.817   2.920
 2613SOL    HW2 9943   3.150   3.842   3.069
 2613SOL     MW 9944   3.109   3.813   2.997
 2614SOL     OW 9945   2.102   4.721   2.182
 2614SOL    HW1 9946   2.039   4.737   2.111
 2614SOL    HW2 9947   2.049   4.684   2.253
 2614SOL     MW 9948   2.087   4.718   2.182
 2615SOL     OW 9949   2.458   5.075   2.041
 2615SOL    HW1 9950   2.473   5.051   2.133
 2615SOL    HW2 9951   2.366   5.053   2.025
 2615SOL     MW 9952   2.448   5.068   2.051
 2616SOL     OW 9953   2.866   4.081   2.826
 2616SOL    HW1 9954   2.796   4.033   2.871
 2616SOL    HW2 9955   2.898   4.144   2.890
 2616SOL     MW 9956   2.861   4.083   2.840
 2617SOL     OW 9957   3.322   3.795   3.171
 2617SOL    HW1 9958   3.393   3.741   3.135
 2617SOL    HW2 9959   3.321   3.774   3.264
 2617SOL     MW 9960   3.331   3.786   3.179
 2618SOL     OW 9961   2.333   4.187   2.639
 2618SOL    HW1 9962   2.404   4.135   2.602
 2618SOL    HW2 9963   2.319   4.152   2.726
 2618SOL     MW 9964   2.341   4.176   2.646
 2619SOL     OW 9965   2.649   5.280   2.715
 2619SOL    HW1 9966   2.577   5.217   2.728
 2619SOL    HW2 9967   2.610   5.365   2.733
 2619SOL     MW 9968   2.633   5.283   2.718
 2620SOL     OW 9969   2.969   4.128   2.363
 2620SOL    HW1 9970   2.991   4.065   2.295
 2620SOL    HW2 9971   2.874   4.120   2.374
 2620SOL     MW 9972   2.959   4.119   2.355
 2621SOL     OW 9973   2.054   3.818   2.295
 2621SOL    HW1 9974   2.125   3.839   2.234
 2621SOL    HW2 9975   2.008   3.746   2.253
 2621SOL     MW 9976   2.058   3.812   2.281
 2622SOL     OW 9977   3.179   4.869   2.325
 2622SOL    HW1 9978   3.151   4.955   2.358
 2622SOL    HW2 9979   3.207   4.885   2.235
 2622SOL     MW 9980   3.179   4.883   2.317
 2623SOL     OW 9981   2.841   3.789   2.378
 2623SOL    HW1 9982   2.878   3.848   2.443
 2623SOL    HW2 9983   2.818   3.845   2.304
 2623SOL     MW 9984   2.842   3.804   2.377
 2624SOL     OW 9985   3.694   4.671   2.800
 2624SOL    HW1 9986   3.685   4.703   2.711
 2624SOL    HW2 9987   3.647   4.587   2.800
 2624SOL     MW 9988   3.687   4.664   2.790
 2625SOL     OW 9989   2.055   4.526   3.646
 2625SOL    HW1 9990   1.981   4.470   3.672
 2625SOL    HW2 9991   2.050   4.529   3.551
 2625SOL     MW 9992   2.044   4.519   3.636
 2626SOL     OW 9993   2.221   3.813   3.096
 2626SOL    HW1 9994   2.264   3.897   3.116
 2626SOL    HW2 9995   2.294   3.751   3.089
 2626SOL     MW 9996   2.236   3.816   3.097
 2627SOL     OW 9997   2.262   4.480   2.274
 2627SOL    HW1 9998   2.262   4.575   2.259
 2627SOL    HW2 9999   2.339   4.464   2.328
 2627SOL     MW10000   2.272   4.491   2.279
 2628SOL     OW10001   3.038   4.339   3.338
 2628SOL    HW110002   3.074   4.312   3.254
 2628SOL    HW210003   2.951   4.373   3.317
 2628SOL     MW10004   3.032   4.340   3.325
 2629SOL     OW10005   2.021   4.211   2.563
 2629SOL    HW110006   2.083   4.218   2.636
 2629SOL    HW210007   2.021   4.118   2.540
 2629SOL     MW10008   2.029   4.200   2.570
 2630SOL     OW10009   2.703   4.472   3.047
 2630SOL    HW110010   2.661   4.390   3.023
 2630SOL    HW210011   2.704   4.471   3.143
 2630SOL     MW10012   2.696   4.461   3.056
 2631SOL     OW10013   1.890   4.783   2.021
 2631SOL    HW110014   1.859   4.848   2.084
 2631SOL    HW210015   1.839   4.705   2.040
 2631SOL     MW10016   1.880   4.780   2.031
 2632SOL     OW10017   3.334   4.534   2.613
 2632SOL    HW110018   3.414   4.549   2.562
 2632SOL    HW210019   3.327   4.439   2.619
 2632SOL     MW10020   3.343   4.523   2.608
 2633SOL     OW10021   2.784   4.460   3.310
 2633SOL    HW110022   2.853   4.527   3.307
 2633SOL    HW210023   2.717   4.498   3.366
 2633SOL     MW10024   2.785   4.473   3.317
 2634SOL     OW10025   2.714   4.300   2.689
 2634SOL    HW110026   2.654   4.318   2.761
 2634SOL    HW210027   2.748   4.212   2.708
 2634SOL     MW10028   2.710   4.290   2.702
 2635SOL     OW10029   3.655   3.799   3.358
 2635SOL    HW110030   3.576   3.845   3.386
 2635SOL    HW210031   3.690   3.853   3.287
 2635SOL     MW10032   3.649   3.812   3.352
 2636SOL     OW10033   2.732   4.703   2.063
 2636SOL    HW110034   2.718   4.615   2.028
 2636SOL    HW210035   2.683   4.760   2.004
 2636SOL     MW10036   2.724   4.698   2.051
 2637SOL     OW10037   3.451   3.909   2.165
 2637SOL    HW110038   3.444   3.913   2.260
 2637SOL    HW210039   3.463   4.000   2.138
 2637SOL     MW10040   3.452   3.922   2.173
 2638SOL     OW10041   2.740   4.472   2.279
 2638SOL    HW110042   2.720   4.458   2.186
 2638SOL    HW210043   2.833   4.451   2.286
 2638SOL     MW10044   2.750   4.467   2.268
 2639SOL     OW10045   2.067   4.095   3.583
 2639SOL    HW110046   2.024   4.154   3.520
 2639SOL    HW210047   2.135   4.150   3.623
 2639SOL     MW10048   2.071   4.110   3.580
 2640SOL     OW10049   3.518   3.892   2.907
 2640SOL    HW110050   3.563   3.810   2.926
 2640SOL    HW210051   3.538   3.948   2.983
 2640SOL     MW10052   3.528   3.888   2.919
 2641SOL     OW10053   2.179   3.862   2.052
 2641SOL    HW110054   2.108   3.917   2.020
 2641SOL    HW210055   2.221   3.828   1.973
 2641SOL     MW10056   2.175   3.864   2.038
 2642SOL     OW10057   3.303   4.359   2.888
 2642SOL    HW110058   3.226   4.405   2.854
 2642SOL    HW210059   3.360   4.428   2.922
 2642SOL     MW10060   3.300   4.374   2.888
 2643SOL     OW10061   1.935   3.961   1.901
 2643SOL    HW110062   1.902   4.040   1.945
 2643SOL    HW210063   1.990   3.994   1.830
 2643SOL     MW10064   1.938   3.975   1.898
 2644SOL     OW10065   3.604   4.575   3.993
 2644SOL    HW110066   3.645   4.517   4.058
 2644SOL    HW210067   3.511   4.567   4.010
 2644SOL     MW10068   3.598   4.567   4.003
 2645SOL     OW10069   3.450   4.901   4.969
 2645SOL    HW110070   3.371   4.866   4.927
 2645SOL    HW210071   3.477   4.973   4.913
 2645SOL     MW10072   3.443   4.906   4.956
 2646SOL     OW10073   2.682   4.214   4.235
 2646SOL    HW110074   2.657   4.302   4.263
 2646SOL    HW210075   2.679   4.217   4.139
 2646SOL     MW10076   2.678   4.226   4.227
 2647SOL     OW10077   2.124   4.242   4.163
 2647SOL    HW110078   2.156   4.330   4.145
 2647SOL    HW210079   2.112   4.240   4.258
 2647SOL     MW10080   2.127   4.254   4.175
 2648SOL     OW10081   2.523   3.997   4.250
 2648SOL    HW110082   2.581   4.073   4.252
 2648SOL    HW210083   2.458   4.018   4.183
 2648SOL     MW10084   2.522   4.009   4.241
 2649SOL     OW10085   2.387   4.428   4.416
 2649SOL    HW110086   2.372   4.348   4.467
 2649SOL    HW210087   2.469   4.463   4.450
 2649SOL     MW10088   2.395   4.420   4.428
 2650SOL     OW10089   2.275   4.668   4.697
 2650SOL    HW110090   2.230   4.675   4.613
 2650SOL    HW210091   2.255   4.751   4.741
 2650SOL     MW10092   2.267   4.680   4.691
 2651SOL     OW10093   2.798   4.685   4.417
 2651SOL    HW110094   2.712   4.672   4.457
 2651SOL    HW210095   2.851   4.612   4.449
 2651SOL     MW10096   2.794   4.674   4.426
 2652SOL     OW10097   3.662   4.048   4.590
 2652SOL    HW110098   3.599   4.028   4.659
 2652SOL    HW210099   3.652   3.977   4.527
 2652SOL     MW10100   3.652   4.035   4.591
 2653SOL     OW10101   2.286   4.020   4.102
 2653SOL    HW110102   2.260   3.982   4.018
 2653SOL    HW210103   2.223   4.090   4.118
 2653SOL     MW10104   2.275   4.023   4.093
 2654SOL     OW10105   3.463   4.820   4.242
 2654SOL    HW110106   3.373   4.820   4.277
 2654SOL    HW210107   3.456   4.866   4.159
 2654SOL     MW10108   3.450   4.826   4.236
 2655SOL     OW10109   3.370   4.798   4.634
 2655SOL    HW110110   3.373   4.732   4.565
 2655SOL    HW210111   3.455   4.841   4.630
 2655SOL     MW10112   3.382   4.794   4.625
 2656SOL     OW10113   2.990   4.401   4.203
 2656SOL    HW110114   3.016   4.425   4.114
 2656SOL    HW210115   2.972   4.308   4.199
 2656SOL     MW10116   2.992   4.393   4.190
 2657SOL     OW10117   3.655   5.021   4.054
 2657SOL    HW110118   3.611   5.062   4.129
 2657SOL    HW210119   3.712   5.089   4.019
 2657SOL     MW10120   3.657   5.035   4.059
 2658SOL     OW10121   3.443   4.356   4.200
 2658SOL    HW110122   3.482   4.356   4.287
 2658SOL    HW210123   3.384   4.432   4.200
 2658SOL     MW10124   3.440   4.367   4.211
 2659SOL     OW10125   2.929   4.349   4.923
 2659SOL    HW110126   3.004   4.378   4.870
 2659SOL    HW210127   2.861   4.414   4.907
 2659SOL     MW10128   2.930   4.361   4.913
 2660SOL     OW10129   3.630   4.242   4.366
 2660SOL    HW110130   3.719   4.211   4.383
 2660SOL    HW210131   3.573   4.182   4.414
 2660SOL     MW10132   3.633   4.230   4.375
 2661SOL     OW10133   2.056   3.956   4.395
 2661SOL    HW110134   2.047   3.896   4.321
 2661SOL    HW210135   1.989   3.927   4.458
 2661SOL     MW10136   2.046   3.943   4.393
 2662SOL     OW10137   2.003   4.129   4.758
 2662SOL    HW110138   1.975   4.220   4.767
 2662SOL    HW210139   1.940   4.090   4.697
 2662SOL     MW10140   1.990   4.135   4.752
 2663SOL     OW10141   2.628   3.961   3.836
 2663SOL    HW110142   2.576   3.881   3.824
 2663SOL    HW210143   2.715   3.938   3.804
 2663SOL     MW10144   2.631   3.947   3.830
 2664SOL     OW10145   2.134   4.832   4.887
 2664SOL    HW110146   2.187   4.907   4.912
 2664SOL    HW210147   2.053   4.870   4.853
 2664SOL     MW10148   2.130   4.847   4.887
 2665SOL     OW10149   2.674   4.736   4.875
 2665SOL    HW110150   2.702   4.645   4.887
 2665SOL    HW210151   2.603   4.730   4.811
 2665SOL     MW10152   2.667   4.724   4.870
 2666SOL     OW10153   2.611   3.859   5.254
 2666SOL    HW110154   2.588   3.767   5.256
 2666SOL    HW210155   2.697   3.861   5.211
 2666SOL     MW10156   2.618   3.849   5.250
 2667SOL     OW10157   3.662   4.401   4.681
 2667SOL    HW110158   3.751   4.431   4.663
 2667SOL    HW210159   3.642   4.341   4.610
 2667SOL     MW10160   3.671   4.398   4.670
 2668SOL     OW10161   3.001   3.958   3.995
 2668SOL    HW110162   2.934   3.934   3.932
 2668SOL    HW210163   3.066   4.007   3.944
 2668SOL     MW10164   3.001   3.960   3.980
 2669SOL     OW10165   3.068   4.480   4.703
 2669SOL    HW110166   3.081   4.574   4.713
 2669SOL    HW210167   3.029   4.470   4.617
 2669SOL     MW10168   3.064   4.491   4.693
 2670SOL     OW10169   2.520   4.675   4.507
 2670SOL    HW110170   2.431   4.666   4.540
 2670SOL    HW210171   2.524   4.765   4.475
 2670SOL     MW10172   2.509   4.686   4.507
 2671SOL     OW10173   3.319   4.258   4.502
 2671SOL    HW110174   3.264   4.179   4.501
 2671SOL    HW210175   3.301   4.299   4.586
 2671SOL     MW10176   3.309   4.253   4.511
 2672SOL     OW10177   2.938   4.462   4.459
 2672SOL    HW110178   2.875   4.394   4.483
 2672SOL    HW210179   2.958   4.443   4.367
 2672SOL     MW10180   2.932   4.449   4.451
 2673SOL     OW10181   3.196   4.010   4.518
 2673SOL    HW110182   3.224   3.942   4.579
 2673SOL    HW210183   3.110   3.981   4.488
 2673SOL     MW10184   3.189   3.997   4.522
 2674SOL     OW10185   3.176   4.114   3.853
 2674SOL    HW110186   3.149   4.180   3.789
 2674SOL    HW210187   3.246   4.157   3.903
 2674SOL     MW10188   3.181   4.127   3.850
 2675SOL     OW10189   2.844   3.819   3.790
 2675SOL    HW110190   2.900   3.811   3.712
 2675SOL    HW210191   2.821   3.729   3.812
 2675SOL     MW10192   2.849   3.806   3.783
 2676SOL     OW10193   3.349   4.670   3.995
 2676SOL    HW110194   3.316   4.759   3.985
 2676SOL    HW210195   3.314   4.641   4.080
 2676SOL     MW10196   3.339   4.679   4.006
 2677SOL     OW10197   2.996   4.681   4.030
 2677SOL    HW110198   2.906   4.702   4.005
 2677SOL    HW210199   3.023   4.754   4.086
 2677SOL     MW10200   2.988   4.693   4.033
 2678SOL     OW10201   3.696   3.964   4.997
 2678SOL    HW110202   3.677   4.031   4.932
 2678SOL    HW210203   3.753   3.902   4.952
 2678SOL     MW10204   3.700   3.965   4.983
 2679SOL     OW10205   2.625   3.797   4.437
 2679SOL    HW110206   2.554   3.858   4.419
 2679SOL    HW210207   2.676   3.794   4.356
 2679SOL     MW10208   2.621   3.803   4.424
 2680SOL     OW10209   2.386   4.321   3.900
 2680SOL    HW110210   2.352   4.377   3.970
 2680SOL    HW210211   2.457   4.271   3.940
 2680SOL     MW10212   2.392   4.322   3.914
 2681SOL     OW10213   2.302   3.862   4.393
 2681SOL    HW110214   2.352   3.905   4.324
 2681SOL    HW210215   2.217   3.906   4.393
 2681SOL     MW10216   2.299   3.875   4.384
 2682SOL     OW10217   3.111   4.469   3.939
 2682SOL    HW110218   3.158   4.487   3.858
 2682SOL    HW210219   3.077   4.553   3.967
 2682SOL     MW10220   3.113   4.483   3.932
 2683SOL     OW10221   2.224   4.647   4.433
 2683SOL    HW110222   2.282   4.703   4.381
 2683SOL    HW210223   2.268   4.562   4.435
 2683SOL     MW10224   2.237   4.644   4.426
 2684SOL     OW10225   3.364   3.999   4.270
 2684SOL    HW110226   3.286   3.949   4.295
 2684SOL    HW210227   3.335   4.090   4.270
 2684SOL     MW10228   3.350   4.003   4.273
 2685SOL     OW10229   2.950   3.961   4.429
 2685SOL    HW110230   2.970   4.036   4.373
 2685SOL    HW210231   2.930   4.000   4.514
 2685SOL     MW10232   2.951   3.977   4.433
 2686SOL     OW10233   1.886   4.373   4.152
 2686SOL    HW110234   1.826   4.345   4.222
 2686SOL    HW210235   1.960   4.313   4.158
 2686SOL     MW10236   1.888   4.362   4.161
 2687SOL     OW10237   3.054   5.104   4.312
 2687SOL    HW110238   3.077   5.055   4.390
 2687SOL    HW210239   3.135   5.146   4.284
 2687SOL     MW10240   3.067   5.104   4.319
 2688SOL     OW10241   2.312   4.112   5.041
 2688SOL    HW110242   2.345   4.193   5.081
 2688SOL    HW210243   2.285   4.138   4.953
 2688SOL     MW10244   2.311   4.126   5.035
 2689SOL     OW10245   2.266   4.079   4.777
 2689SOL    HW110246   2.296   3.993   4.748
 2689SOL    HW210247   2.171   4.072   4.780
 2689SOL     MW10248   2.258   4.068   4.775
 2690SOL     OW10249   3.738   4.899   4.809
 2690SOL    HW110250   3.731   4.839   4.734
 2690SOL    HW210251   3.664   4.959   4.798
 2690SOL     MW10252   3.728   4.899   4.798
 2691SOL     OW10253   3.194   3.771   3.948
 2691SOL    HW110254   3.268   3.815   3.991
 2691SOL    HW210255   3.118   3.825   3.970
 2691SOL     MW10256   3.194   3.783   3.956
 2692SOL     OW10257   2.330   5.009   4.957
 2692SOL    HW110258   2.342   5.036   5.048
 2692SOL    HW210259   2.311   5.090   4.910
 2692SOL     MW10260   2.329   5.024   4.962
 2693SOL     OW10261   2.614   3.989   4.780
 2693SOL    HW110262   2.587   3.991   4.871
 2693SOL    HW210263   2.544   3.941   4.735
 2693SOL     MW10264   2.602   3.985   4.787
 2694SOL     OW10265   2.444   4.797   5.291
 2694SOL    HW110266   2.481   4.802   5.203
 2694SOL    HW210267   2.483   4.870   5.338
 2694SOL     MW10268   2.454   4.807   5.286
 2695SOL     OW10269   2.627   4.212   3.952
 2695SOL    HW110270   2.700   4.261   3.915
 2695SOL    HW210271   2.643   4.121   3.926
 2695SOL     MW10272   2.639   4.207   3.945
 2696SOL     OW10273   3.095   3.808   4.866
 2696SOL    HW110274   3.150   3.817   4.788
 2696SOL    HW210275   3.150   3.842   4.937
 2696SOL     MW10276   3.109   3.813   4.865
 2697SOL     OW10277   2.102   4.721   4.050
 2697SOL    HW110278   2.039   4.737   3.979
 2697SOL    HW210279   2.049   4.684   4.121
 2697SOL     MW10280   2.087   4.718   4.050
 2698SOL     OW10281   2.333   4.187   4.507
 2698SOL    HW110282   2.404   4.135   4.470
 2698SOL    HW210283   2.319   4.152   4.594
 2698SOL     MW10284   2.341   4.176   4.514
 2699SOL     OW10285   2.054   3.818   4.163
 2699SOL    HW110286   2.125   3.839   4.102
 2699SOL    HW210287   2.008   3.746   4.121
 2699SOL     MW10288   2.058   3.812   4.149
 2700SOL     OW10289   2.841   3.789   4.246
 2700SOL    HW110290   2.878   3.848   4.311
 2700SOL    HW210291   2.818   3.845   4.172
 2700SOL     MW10292   2.842   3.804   4.245
 2701SOL     OW10293   3.694   4.671   4.668
 2701SOL    HW110294   3.685   4.703   4.579
 2701SOL    HW210295   3.647   4.587   4.668
 2701SOL     MW10296   3.687   4.664   4.658
 2702SOL     OW10297   3.606   4.602   4.369
 2702SOL    HW110298   3.700   4.591   4.357
 2702SOL    HW210299   3.582   4.674   4.310
 2702SOL     MW10300   3.616   4.610   4.360
 2703SOL     OW10301   2.021   4.211   4.431
 2703SOL    HW110302   2.083   4.218   4.504
 2703SOL    HW210303   2.021   4.118   4.408
 2703SOL     MW10304   2.029   4.200   4.438
 2704SOL     OW10305   2.703   4.472   4.915
 2704SOL    HW110306   2.661   4.390   4.891
 2704SOL    HW210307   2.704   4.471   5.011
 2704SOL     MW10308   2.696   4.461   4.924
 2705SOL     OW10309   1.890   4.783   3.889
 2705SOL    HW110310   1.859   4.848   3.952
 2705SOL    HW210311   1.839   4.705   3.908
 2705SOL     MW10312   1.880   4.780   3.899
 2706SOL     OW10313   3.302   3.795   4.637
 2706SOL    HW110314   3.390   3.804   4.674
 2706SOL    HW210315   3.312   3.736   4.563
 2706SOL     MW10316   3.316   3.789   4.631
 2707SOL     OW10317   3.334   4.534   4.481
 2707SOL    HW110318   3.414   4.549   4.430
 2707SOL    HW210319   3.327   4.439   4.487
 2707SOL     MW10320   3.343   4.523   4.476
 2708SOL     OW10321   3.319   4.403   3.747
 2708SOL    HW110322   3.247   4.379   3.689
 2708SOL    HW210323   3.385   4.440   3.689
 2708SOL     MW10324   3.318   4.405   3.732
 2709SOL     OW10325   2.714   4.300   4.557
 2709SOL    HW110326   2.654   4.318   4.629
 2709SOL    HW210327   2.748   4.212   4.576
 2709SOL     MW10328   2.710   4.290   4.570
 2710SOL     OW10329   2.732   4.703   3.931
 2710SOL    HW110330   2.718   4.615   3.896
 2710SOL    HW210331   2.683   4.760   3.872
 2710SOL     MW10332   2.724   4.698   3.919
 2711SOL     OW10333   2.145   4.427   4.710
 2711SOL    HW110334   2.095   4.426   4.791
 2711SOL    HW210335   2.165   4.519   4.694
 2711SOL     MW10336   2.141   4.439   4.718
 2712SOL     OW10337   3.451   3.909   4.033
 2712SOL    HW110338   3.444   3.913   4.128
 2712SOL    HW210339   3.463   4.000   4.006
 2712SOL     MW10340   3.452   3.922   4.041
 2713SOL     OW10341   2.740   4.472   4.147
 2713SOL    HW110342   2.720   4.458   4.054
 2713SOL    HW210343   2.833   4.451   4.154
 2713SOL     MW10344   2.750   4.467   4.136
 2714SOL     OW10345   3.179   4.715   4.996
 2714SOL    HW110346   3.242   4.712   5.069
 2714SOL    HW210347   3.095   4.733   5.038
 2714SOL     MW10348   3.175   4.717   5.011
 2715SOL     OW10349   3.518   3.892   4.775
 2715SOL    HW110350   3.563   3.810   4.794
 2715SOL    HW210351   3.538   3.948   4.851
 2715SOL     MW10352   3.528   3.888   4.787
 2716SOL     OW10353   2.179   3.862   3.920
 2716SOL    HW110354   2.108   3.917   3.888
 2716SOL    HW210355   2.221   3.828   3.841
 2716SOL     MW10356   2.175   3.864   3.906
 2717SOL     OW10357   1.935   3.961   3.769
 2717SOL    HW110358   1.902   4.040   3.813
 2717SOL    HW210359   1.990   3.994   3.698
 2717SOL     MW10360   1.938   3.975   3.766
 2718SOL     OW10361   4.266   1.022   0.486
 2718SOL    HW110362   4.356   0.997   0.470
 2718SOL    HW210363   4.262   1.115   0.463
 2718SOL     MW10364   4.278   1.031   0.481
 2719SOL     OW10365   4.550   0.478   0.499
 2719SOL    HW110366   4.525   0.566   0.527
 2719SOL    HW210367   4.547   0.481   0.403
 2719SOL     MW10368   4.546   0.490   0.491
 2720SOL     OW10369   4.070   0.919   1.328
 2720SOL    HW110370   4.133   0.866   1.279
 2720SOL    HW210371   4.051   0.993   1.271
 2720SOL     MW10372   4.076   0.921   1.315
 2721SOL     OW10373   4.391   0.261   0.514
 2721SOL    HW110374   4.449   0.337   0.516
 2721SOL    HW210375   4.326   0.282   0.447
 2721SOL     MW10376   4.390   0.273   0.505
 2722SOL     OW10377   4.478   1.188   0.689
 2722SOL    HW110378   4.558   1.191   0.741
 2722SOL    HW210379   4.506   1.155   0.603
 2722SOL     MW10380   4.492   1.184   0.684
 2723SOL     OW10381   4.503   1.529   1.592
 2723SOL    HW110382   4.587   1.555   1.631
 2723SOL    HW210383   4.527   1.473   1.518
 2723SOL     MW10384   4.517   1.525   1.587
 2724SOL     OW10385   4.255   0.692   0.680
 2724SOL    HW110386   4.240   0.612   0.731
 2724SOL    HW210387   4.337   0.727   0.714
 2724SOL     MW10388   4.263   0.684   0.692
 2725SOL     OW10389   4.592   1.378   1.365
 2725SOL    HW110390   4.556   1.444   1.305
 2725SOL    HW210391   4.520   1.316   1.378
 2725SOL     MW10392   4.578   1.378   1.359
 2726SOL     OW10393   4.397   0.518   1.057
 2726SOL    HW110394   4.303   0.514   1.075
 2726SOL    HW210395   4.427   0.427   1.066
 2726SOL     MW10396   4.388   0.506   1.060
 2727SOL     OW10397   4.104   1.305   0.871
 2727SOL    HW110398   4.080   1.358   0.947
 2727SOL    HW210399   4.160   1.363   0.819
 2727SOL     MW10400   4.108   1.320   0.874
 2728SOL     OW10401   4.657   1.311   0.398
 2728SOL    HW110402   4.634   1.373   0.466
 2728SOL    HW210403   4.614   1.229   0.424
 2728SOL     MW10404   4.649   1.307   0.409
 2729SOL     OW10405   3.989   1.245   0.403
 2729SOL    HW110406   3.937   1.313   0.359
 2729SOL    HW210407   3.986   1.171   0.343
 2729SOL     MW10408   3.981   1.244   0.390
 2730SOL     OW10409   4.651   1.708   0.181
 2730SOL    HW110410   4.606   1.724   0.264
 2730SOL    HW210411   4.582   1.673   0.123
 2730SOL     MW10412   4.637   1.705   0.183
 2731SOL     OW10413   3.872   1.599   1.130
 2731SOL    HW110414   3.855   1.545   1.207
 2731SOL    HW210415   3.860   1.689   1.160
 2731SOL     MW10416   3.869   1.603   1.144
 2732SOL     OW10417   5.238   1.062   0.898
 2732SOL    HW110418   5.241   0.996   0.829
 2732SOL    HW210419   5.323   1.105   0.894
 2732SOL     MW10420   5.250   1.058   0.889
 2733SOL     OW10421   4.443   0.334   1.721
 2733SOL    HW110422   4.453   0.260   1.661
 2733SOL    HW210423   4.479   0.303   1.804
 2733SOL     MW10424   4.449   0.320   1.723
 2734SOL     OW10425   4.179   1.701   0.636
 2734SOL    HW110426   4.211   1.789   0.614
 2734SOL    HW210427   4.132   1.673   0.558
 2734SOL     MW10428   4.178   1.709   0.623
 2735SOL     OW10429   3.895   1.761   0.213
 2735SOL    HW110430   3.924   1.851   0.205
 2735SOL    HW210431   3.845   1.744   0.134
 2735SOL     MW10432   3.893   1.769   0.202
 2736SOL     OW10433   4.697   0.694   0.128
 2736SOL    HW110434   4.699   0.641   0.049
 2736SOL    HW210435   4.785   0.731   0.134
 2736SOL     MW10436   4.709   0.693   0.117
 2737SOL     OW10437   4.628   0.987   1.593
 2737SOL    HW110438   4.605   0.967   1.683
 2737SOL    HW210439   4.713   1.031   1.598
 2737SOL     MW10440   4.635   0.990   1.605
 2738SOL     OW10441   4.794   0.319   1.570
 2738SOL    HW110442   4.760   0.358   1.489
 2738SOL    HW210443   4.772   0.227   1.563
 2738SOL     MW10444   4.787   0.312   1.560
 2739SOL     OW10445   3.924   0.220   0.659
 2739SOL    HW110446   3.915   0.160   0.585
 2739SOL    HW210447   3.857   0.191   0.722
 2739SOL     MW10448   3.914   0.207   0.657
 2740SOL     OW10449   4.330   1.731   0.328
 2740SOL    HW110450   4.251   1.689   0.361
 2740SOL    HW210451   4.396   1.714   0.395
 2740SOL     MW10452   4.329   1.723   0.341
 2741SOL     OW10453   4.466   1.146   0.035
 2741SOL    HW110454   4.388   1.092   0.022
 2741SOL    HW210455   4.437   1.219   0.088
 2741SOL     MW10456   4.452   1.148   0.040
 2742SOL     OW10457   5.271   1.336   0.045
 2742SOL    HW110458   5.218   1.385  -0.019
 2742SOL    HW210459   5.302   1.402   0.106
 2742SOL     MW10460   5.269   1.350   0.043
 2743SOL     OW10461   4.496   0.225   0.100
 2743SOL    HW110462   4.444   0.145   0.088
 2743SOL    HW210463   4.583   0.202   0.068
 2743SOL     MW10464   4.499   0.211   0.094
 2744SOL     OW10465   3.950   1.777   1.644
 2744SOL    HW110466   3.924   1.845   1.582
 2744SOL    HW210467   3.998   1.714   1.592
 2744SOL     MW10468   3.952   1.777   1.630
 2745SOL     OW10469   3.857   0.865   0.557
 2745SOL    HW110470   3.948   0.880   0.584
 2745SOL    HW210471   3.860   0.786   0.503
 2745SOL     MW10472   3.869   0.857   0.555
 2746SOL     OW10473   4.479   0.123   1.518
 2746SOL    HW110474   4.456   0.031   1.520
 2746SOL    HW210475   4.565   0.125   1.475
 2746SOL     MW10476   4.486   0.113   1.514
 2747SOL     OW10477   4.163   0.647   1.557
 2747SOL    HW110478   4.243   0.697   1.543
 2747SOL    HW210479   4.154   0.641   1.652
 2747SOL     MW10480   4.172   0.653   1.567
 2748SOL     OW10481   4.698   1.520   0.631
 2748SOL    HW110482   4.781   1.474   0.615
 2748SOL    HW210483   4.688   1.519   0.727
 2748SOL     MW10484   4.708   1.513   0.641
 2749SOL     OW10485   4.869   0.222   0.259
 2749SOL    HW110486   4.802   0.198   0.196
 2749SOL    HW210487   4.934   0.271   0.208
 2749SOL     MW10488   4.869   0.224   0.244
 2750SOL     OW10489   4.676   0.406   1.344
 2750SOL    HW110490   4.595   0.447   1.372
 2750SOL    HW210491   4.723   0.474   1.296
 2750SOL     MW10492   4.671   0.421   1.342
 2751SOL     OW10493   4.936   0.744   0.967
 2751SOL    HW110494   4.949   0.838   0.977
 2751SOL    HW210495   4.897   0.734   0.881
 2751SOL     MW10496   4.932   0.755   0.957
 2752SOL     OW10497   4.388   0.939   0.771
 2752SOL    HW110498   4.299   0.930   0.804
 2752SOL    HW210499   4.392   1.029   0.739
 2752SOL     MW10500   4.377   0.950   0.771
 2753SOL     OW10501   4.158   0.209   1.583
 2753SOL    HW110502   4.079   0.227   1.635
 2753SOL    HW210503   4.153   0.271   1.510
 2753SOL     MW10504   4.148   0.219   1.580
 2754SOL     OW10505   4.806   0.726   0.723
 2754SOL    HW110506   4.743   0.658   0.747
 2754SOL    HW210507   4.826   0.707   0.631
 2754SOL     MW10508   4.800   0.713   0.715
 2755SOL     OW10509   4.062   1.621   0.425
 2755SOL    HW110510   4.023   1.668   0.351
 2755SOL    HW210511   3.996   1.556   0.450
 2755SOL     MW10512   4.049   1.619   0.419
 2756SOL     OW10513   5.111   1.798   0.651
 2756SOL    HW110514   5.054   1.751   0.590
 2756SOL    HW210515   5.197   1.759   0.638
 2756SOL     MW10516   5.114   1.789   0.641
 2757SOL     OW10517   3.869   1.208   0.716
 2757SOL    HW110518   3.933   1.240   0.779
 2757SOL    HW210519   3.918   1.144   0.664
 2757SOL     MW10520   3.884   1.204   0.717
 2758SOL     OW10521   4.369   1.284   1.698
 2758SOL    HW110522   4.417   1.367   1.685
 2758SOL    HW210523   4.426   1.232   1.754
 2758SOL     MW10524   4.383   1.288   1.704
 2759SOL     OW10525   3.945   1.526   1.838
 2759SOL    HW110526   4.001   1.450   1.853
 2759SOL    HW210527   3.894   1.504   1.760
 2759SOL     MW10528   3.945   1.513   1.829
 2760SOL     OW10529   4.123   0.031   1.789
 2760SOL    HW110530   4.051  -0.004   1.737
 2760SOL    HW210531   4.181   0.072   1.724
 2760SOL     MW10532   4.121   0.032   1.774
 2761SOL     OW10533   4.569   1.589   1.196
 2761SOL    HW110534   4.593   1.578   1.105
 2761SOL    HW210535   4.492   1.646   1.194
 2761SOL     MW10536   4.561   1.594   1.185
 2762SOL     OW10537   4.211   0.972   0.051
 2762SOL    HW110538   4.134   0.985   0.107
 2762SOL    HW210539   4.175   0.936  -0.030
 2762SOL     MW10540   4.197   0.968   0.048
 2763SOL     OW10541   4.864   0.945   0.294
 2763SOL    HW110542   4.774   0.966   0.269
 2763SOL    HW210543   4.891   1.018   0.350
 2763SOL     MW10544   4.856   0.957   0.297
 2764SOL     OW10545   4.364   1.294   0.986
 2764SOL    HW110546   4.357   1.273   1.080
 2764SOL    HW210547   4.282   1.262   0.949
 2764SOL     MW10548   4.352   1.288   0.993
 2765SOL     OW10549   4.493   0.061   0.701
 2765SOL    HW110550   4.422   0.122   0.683
 2765SOL    HW210551   4.544   0.058   0.620
 2765SOL     MW10552   4.489   0.067   0.688
 2766SOL     OW10553   4.846   1.694   1.359
 2766SOL    HW110554   4.766   1.679   1.309
 2766SOL    HW210555   4.853   1.789   1.366
 2766SOL     MW10556   4.837   1.705   1.353
 2767SOL     OW10557   4.254   0.585   0.164
 2767SOL    HW110558   4.220   0.641   0.234
 2767SOL    HW210559   4.325   0.535   0.204
 2767SOL     MW10560   4.260   0.586   0.178
 2768SOL     OW10561   4.779   0.984   1.355
 2768SOL    HW110562   4.822   1.019   1.433
 2768SOL    HW210563   4.762   1.061   1.301
 2768SOL     MW10564   4.782   0.999   1.358
 2769SOL     OW10565   4.170   0.126   0.657
 2769SOL    HW110566   4.220   0.169   0.588
 2769SOL    HW210567   4.085   0.170   0.657
 2769SOL     MW10568   4.167   0.139   0.648
 2770SOL     OW10569   3.929   1.188   1.517
 2770SOL    HW110570   3.957   1.141   1.595
 2770SOL    HW210571   3.850   1.143   1.488
 2770SOL     MW10572   3.922   1.177   1.523
 2771SOL     OW10573   4.979   0.733   0.203
 2771SOL    HW110574   5.026   0.751   0.122
 2771SOL    HW210575   4.945   0.817   0.231
 2771SOL     MW10576   4.981   0.747   0.196
 2772SOL     OW10577   4.092   0.911   0.697
 2772SOL    HW110578   4.150   0.967   0.645
 2772SOL    HW210579   4.136   0.826   0.699
 2772SOL     MW10580   4.105   0.908   0.690
 2773SOL     OW10581   3.799   1.511   0.869
 2773SOL    HW110582   3.831   1.515   0.960
 2773SOL    HW210583   3.704   1.519   0.877
 2773SOL     MW10584   3.791   1.514   0.882
 2774SOL     OW10585   3.754   0.637   0.416
 2774SOL    HW110586   3.694   0.609   0.486
 2774SOL    HW210587   3.828   0.577   0.422
 2774SOL     MW10588   3.756   0.626   0.425
 2775SOL     OW10589   4.134   0.343   1.041
 2775SOL    HW110590   4.164   0.257   1.012
 2775SOL    HW210591   4.039   0.336   1.044
 2775SOL     MW10592   4.126   0.332   1.039
 2776SOL     OW10593   4.371   1.736   1.478
 2776SOL    HW110594   4.288   1.721   1.523
 2776SOL    HW210595   4.430   1.669   1.513
 2776SOL     MW10596   4.369   1.726   1.488
 2777SOL     OW10597   5.062   0.035   0.212
 2777SOL    HW110598   5.136   0.079   0.255
 2777SOL    HW210599   4.986   0.089   0.234
 2777SOL     MW10600   5.062   0.047   0.220
 2778SOL     OW10601   4.198   1.273   1.221
 2778SOL    HW110602   4.210   1.300   1.312
 2778SOL    HW210603   4.179   1.354   1.174
 2778SOL     MW10604   4.197   1.288   1.226
 2779SOL     OW10605   4.482   0.253   1.044
 2779SOL    HW110606   4.455   0.255   1.135
 2779SOL    HW210607   4.412   0.205   0.999
 2779SOL     MW10608   4.470   0.249   1.051
 2780SOL     OW10609   4.312   1.061   1.555
 2780SOL    HW110610   4.349   1.066   1.467
 2780SOL    HW210611   4.351   1.134   1.602
 2780SOL     MW10612   4.322   1.071   1.550
 2781SOL     OW10613   4.492   1.104   1.367
 2781SOL    HW110614   4.551   1.050   1.420
 2781SOL    HW210615   4.507   1.076   1.277
 2781SOL     MW10616   4.502   1.093   1.363
 2782SOL     OW10617   4.495   0.476   0.216
 2782SOL    HW110618   4.568   0.525   0.179
 2782SOL    HW210619   4.511   0.385   0.190
 2782SOL     MW10620   4.507   0.471   0.209
 2783SOL     OW10621   3.970   0.985   0.314
 2783SOL    HW110622   3.907   1.001   0.243
 2783SOL    HW210623   3.917   0.948   0.385
 2783SOL     MW10624   3.955   0.982   0.314
 2784SOL     OW10625   4.865   1.570   0.325
 2784SOL    HW110626   4.873   1.488   0.276
 2784SOL    HW210627   4.784   1.609   0.292
 2784SOL     MW10628   4.855   1.565   0.315
 2785SOL     OW10629   4.124   1.728   0.894
 2785SOL    HW110630   4.128   1.639   0.929
 2785SOL    HW210631   4.150   1.719   0.803
 2785SOL     MW10632   4.127   1.716   0.886
 2786SOL     OW10633   4.741   1.206   1.137
 2786SOL    HW110634   4.673   1.140   1.153
 2786SOL    HW210635   4.759   1.200   1.044
 2786SOL     MW10636   4.734   1.197   1.128
 2787SOL     OW10637   3.830   1.481   1.388
 2787SOL    HW110638   3.820   1.439   1.474
 2787SOL    HW210639   3.751   1.534   1.378
 2787SOL     MW10640   3.819   1.482   1.399
 2788SOL     OW10641   4.106   1.296   1.836
 2788SOL    HW110642   4.178   1.298   1.773
 2788SOL    HW210643   4.076   1.205   1.835
 2788SOL     MW10644   4.111   1.285   1.828
 2789SOL     OW10645   4.201   0.451   0.771
 2789SOL    HW110646   4.272   0.399   0.734
 2789SOL    HW210647   4.187   0.416   0.858
 2789SOL     MW10648   4.209   0.440   0.778
 2790SOL     OW10649   3.756   1.786   1.843
 2790SOL    HW110650   3.806   1.764   1.765
 2790SOL    HW210651   3.764   1.881   1.851
 2790SOL     MW10652   3.764   1.795   1.834
 2791SOL     OW10653   4.837   0.392   0.495
 2791SOL    HW110654   4.859   0.329   0.427
 2791SOL    HW210655   4.742   0.384   0.506
 2791SOL     MW10656   4.827   0.383   0.487
 2792SOL     OW10657   5.047   1.133   0.457
 2792SOL    HW110658   5.019   1.219   0.490
 2792SOL    HW210659   5.075   1.149   0.367
 2792SOL     MW10660   5.047   1.147   0.449
 2793SOL     OW10661   4.709   0.053   0.510
 2793SOL    HW110662   4.746   0.112   0.575
 2793SOL    HW210663   4.686   0.109   0.436
 2793SOL     MW10664   4.710   0.068   0.509
 2794SOL     OW10665   4.089   0.077   1.228
 2794SOL    HW110666   4.132   0.161   1.248
 2794SOL    HW210667   4.162   0.015   1.221
 2794SOL     MW10668   4.104   0.080   1.229
 2795SOL     OW10669   3.889   0.475   0.695
 2795SOL    HW110670   3.951   0.482   0.768
 2795SOL    HW210671   3.889   0.382   0.672
 2795SOL     MW10672   3.897   0.464   0.702
 2796SOL     OW10673   4.375   0.206   1.284
 2796SOL    HW110674   4.306   0.269   1.305
 2796SOL    HW210675   4.402   0.170   1.369
 2796SOL     MW10676   4.369   0.209   1.297
 2797SOL     OW10677   3.758   1.047   0.153
 2797SOL    HW110678   3.727   1.112   0.216
 2797SOL    HW210679   3.707   0.969   0.172
 2797SOL     MW10680   3.748   1.044   0.163
 2798SOL     OW10681   4.342   1.847   0.095
 2798SOL    HW110682   4.247   1.847   0.087
 2798SOL    HW210683   4.358   1.793   0.173
 2798SOL     MW10684   4.332   1.841   0.104
 2799SOL     OW10685   4.070   1.024   1.690
 2799SOL    HW110686   4.024   0.940   1.692
 2799SOL    HW210687   4.127   1.018   1.614
 2799SOL     MW10688   4.072   1.012   1.682
 2800SOL     OW10689   4.321   1.399   0.691
 2800SOL    HW110690   4.386   1.332   0.712
 2800SOL    HW210691   4.373   1.476   0.668
 2800SOL     MW10692   4.336   1.401   0.690
 2801SOL     OW10693   4.582   0.564   0.821
 2801SOL    HW110694   4.522   0.582   0.893
 2801SOL    HW210695   4.616   0.476   0.840
 2801SOL     MW10696   4.578   0.554   0.834
 2802SOL     OW10697   4.807   1.147   0.840
 2802SOL    HW110698   4.899   1.128   0.858
 2802SOL    HW210699   4.780   1.077   0.780
 2802SOL     MW10700   4.815   1.135   0.834
 2803SOL     OW10701   4.600   0.967   0.195
 2803SOL    HW110702   4.586   0.879   0.160
 2803SOL    HW210703   4.551   1.024   0.136
 2803SOL     MW10704   4.592   0.962   0.183
 2804SOL     OW10705   5.000   1.333   1.204
 2804SOL    HW110706   5.011   1.300   1.293
 2804SOL    HW210707   4.919   1.292   1.173
 2804SOL     MW10708   4.990   1.325   1.210
 2805SOL     OW10709   4.608   0.736   0.411
 2805SOL    HW110710   4.588   0.722   0.318
 2805SOL    HW210711   4.701   0.715   0.418
 2805SOL     MW10712   4.618   0.731   0.400
 2806SOL     OW10713   3.935   0.359   1.715
 2806SOL    HW110714   3.892   0.418   1.652
 2806SOL    HW210715   4.003   0.414   1.755
 2806SOL     MW10716   3.939   0.374   1.712
 2807SOL     OW10717   5.047   0.979   1.260
 2807SOL    HW110718   5.110   0.976   1.333
 2807SOL    HW210719   4.963   0.997   1.302
 2807SOL     MW10720   5.043   0.981   1.275
 2808SOL     OW10721   4.591   1.694   0.449
 2808SOL    HW110722   4.649   1.765   0.476
 2808SOL    HW210723   4.614   1.622   0.507
 2808SOL     MW10724   4.602   1.694   0.460
 2809SOL     OW10725   4.163   1.337   1.501
 2809SOL    HW110726   4.084   1.287   1.524
 2809SOL    HW210727   4.233   1.296   1.551
 2809SOL     MW10728   4.161   1.325   1.511
 2810SOL     OW10729   4.266   1.022   2.354
 2810SOL    HW110730   4.356   0.997   2.338
 2810SOL    HW210731   4.262   1.115   2.331
 2810SOL     MW10732   4.278   1.031   2.349
 2811SOL     OW10733   4.761   1.610   3.497
 2811SOL    HW110734   4.802   1.646   3.418
 2811SOL    HW210735   4.796   1.521   3.504
 2811SOL     MW10736   4.772   1.603   3.488
 2812SOL     OW10737   4.550   0.478   2.367
 2812SOL    HW110738   4.525   0.566   2.395
 2812SOL    HW210739   4.547   0.481   2.271
 2812SOL     MW10740   4.546   0.490   2.359
 2813SOL     OW10741   4.070   0.919   3.196
 2813SOL    HW110742   4.133   0.866   3.147
 2813SOL    HW210743   4.051   0.993   3.139
 2813SOL     MW10744   4.076   0.921   3.183
 2814SOL     OW10745   4.478   1.188   2.557
 2814SOL    HW110746   4.558   1.191   2.609
 2814SOL    HW210747   4.506   1.155   2.471
 2814SOL     MW10748   4.492   1.184   2.552
 2815SOL     OW10749   4.503   1.529   3.460
 2815SOL    HW110750   4.587   1.555   3.499
 2815SOL    HW210751   4.527   1.473   3.386
 2815SOL     MW10752   4.517   1.525   3.455
 2816SOL     OW10753   4.255   0.692   2.548
 2816SOL    HW110754   4.240   0.612   2.599
 2816SOL    HW210755   4.337   0.727   2.582
 2816SOL     MW10756   4.263   0.684   2.560
 2817SOL     OW10757   4.592   1.378   3.233
 2817SOL    HW110758   4.556   1.444   3.173
 2817SOL    HW210759   4.520   1.316   3.246
 2817SOL     MW10760   4.578   1.378   3.227
 2818SOL     OW10761   4.397   0.518   2.925
 2818SOL    HW110762   4.303   0.514   2.943
 2818SOL    HW210763   4.427   0.427   2.934
 2818SOL     MW10764   4.388   0.506   2.928
 2819SOL     OW10765   3.840   1.778   2.704
 2819SOL    HW110766   3.929   1.770   2.739
 2819SOL    HW210767   3.804   1.690   2.709
 2819SOL     MW10768   3.847   1.765   2.709
 2820SOL     OW10769   4.104   1.305   2.739
 2820SOL    HW110770   4.080   1.358   2.815
 2820SOL    HW210771   4.160   1.363   2.687
 2820SOL     MW10772   4.108   1.320   2.742
 2821SOL     OW10773   4.666   0.949   2.549
 2821SOL    HW110774   4.580   0.936   2.589
 2821SOL    HW210775   4.719   0.876   2.581
 2821SOL     MW10776   4.662   0.938   2.558
 2822SOL     OW10777   4.074   1.601   3.334
 2822SOL    HW110778   3.982   1.577   3.319
 2822SOL    HW210779   4.118   1.518   3.351
 2822SOL     MW10780   4.068   1.586   3.333
 2823SOL     OW10781   4.657   1.311   2.266
 2823SOL    HW110782   4.634   1.373   2.334
 2823SOL    HW210783   4.614   1.229   2.292
 2823SOL     MW10784   4.649   1.307   2.277
 2824SOL     OW10785   4.154   0.284   2.234
 2824SOL    HW110786   4.128   0.246   2.150
 2824SOL    HW210787   4.091   0.354   2.250
 2824SOL     MW10788   4.143   0.287   2.225
 2825SOL     OW10789   3.989   1.245   2.271
 2825SOL    HW110790   3.937   1.313   2.227
 2825SOL    HW210791   3.986   1.171   2.211
 2825SOL     MW10792   3.981   1.244   2.258
 2826SOL     OW10793   3.872   1.599   2.998
 2826SOL    HW110794   3.855   1.545   3.075
 2826SOL    HW210795   3.860   1.689   3.028
 2826SOL     MW10796   3.869   1.603   3.012
 2827SOL     OW10797   4.867   1.106   3.438
 2827SOL    HW110798   4.852   1.199   3.423
 2827SOL    HW210799   4.962   1.096   3.438
 2827SOL     MW10800   4.876   1.116   3.435
 2828SOL     OW10801   4.663   0.530   3.639
 2828SOL    HW110802   4.753   0.531   3.606
 2828SOL    HW210803   4.622   0.455   3.597
 2828SOL     MW10804   4.669   0.520   3.630
 2829SOL     OW10805   4.179   1.701   2.504
 2829SOL    HW110806   4.211   1.789   2.482
 2829SOL    HW210807   4.132   1.673   2.426
 2829SOL     MW10808   4.178   1.709   2.491
 2830SOL     OW10809   3.895   1.761   2.081
 2830SOL    HW110810   3.924   1.851   2.073
 2830SOL    HW210811   3.845   1.744   2.002
 2830SOL     MW10812   3.893   1.769   2.070
 2831SOL     OW10813   4.682   0.016   2.966
 2831SOL    HW110814   4.641   0.094   2.928
 2831SOL    HW210815   4.776   0.034   2.961
 2831SOL     MW10816   4.688   0.028   2.961
 2832SOL     OW10817   5.299   1.569   2.052
 2832SOL    HW110818   5.347   1.638   2.098
 2832SOL    HW210819   5.220   1.613   2.021
 2832SOL     MW10820   5.294   1.583   2.055
 2833SOL     OW10821   4.697   0.694   1.996
 2833SOL    HW110822   4.699   0.641   1.917
 2833SOL    HW210823   4.785   0.731   2.002
 2833SOL     MW10824   4.709   0.693   1.985
 2834SOL     OW10825   4.628   0.987   3.461
 2834SOL    HW110826   4.605   0.967   3.551
 2834SOL    HW210827   4.713   1.031   3.466
 2834SOL     MW10828   4.635   0.990   3.473
 2835SOL     OW10829   4.708   0.124   3.221
 2835SOL    HW110830   4.714   0.086   3.134
 2835SOL    HW210831   4.697   0.218   3.206
 2835SOL     MW10832   4.709   0.132   3.209
 2836SOL     OW10833   4.797   0.613   3.055
 2836SOL    HW110834   4.872   0.642   3.002
 2836SOL    HW210835   4.729   0.678   3.039
 2836SOL     MW10836   4.798   0.625   3.045
 2837SOL     OW10837   4.794   0.319   3.438
 2837SOL    HW110838   4.760   0.358   3.357
 2837SOL    HW210839   4.772   0.227   3.431
 2837SOL     MW10840   4.787   0.312   3.428
 2838SOL     OW10841   3.924   0.220   2.527
 2838SOL    HW110842   3.915   0.160   2.453
 2838SOL    HW210843   3.857   0.191   2.590
 2838SOL     MW10844   3.914   0.207   2.525
 2839SOL     OW10845   4.867   1.313   2.088
 2839SOL    HW110846   4.817   1.315   2.170
 2839SOL    HW210847   4.801   1.331   2.020
 2839SOL     MW10848   4.853   1.315   2.090
 2840SOL     OW10849   3.871   0.393   2.890
 2840SOL    HW110850   3.843   0.484   2.899
 2840SOL    HW210851   3.808   0.354   2.829
 2840SOL     MW10852   3.858   0.399   2.884
 2841SOL     OW10853   4.330   1.731   2.196
 2841SOL    HW110854   4.251   1.689   2.229
 2841SOL    HW210855   4.396   1.714   2.263
 2841SOL     MW10856   4.329   1.723   2.209
 2842SOL     OW10857   4.466   1.146   1.903
 2842SOL    HW110858   4.388   1.092   1.890
 2842SOL    HW210859   4.437   1.219   1.956
 2842SOL     MW10860   4.452   1.148   1.908
 2843SOL     OW10861   3.855   0.668   3.060
 2843SOL    HW110862   3.917   0.698   3.126
 2843SOL    HW210863   3.789   0.737   3.054
 2843SOL     MW10864   3.854   0.681   3.067
 2844SOL     OW10865   4.496   0.225   1.968
 2844SOL    HW110866   4.444   0.145   1.956
 2844SOL    HW210867   4.583   0.202   1.936
 2844SOL     MW10868   4.499   0.211   1.962
 2845SOL     OW10869   4.542   1.000   3.007
 2845SOL    HW110870   4.570   0.909   3.019
 2845SOL    HW210871   4.471   0.994   2.943
 2845SOL     MW10872   4.535   0.988   3.002
 2846SOL     OW10873   3.857   0.865   2.425
 2846SOL    HW110874   3.948   0.880   2.452
 2846SOL    HW210875   3.860   0.786   2.371
 2846SOL     MW10876   3.869   0.857   2.423
 2847SOL     OW10877   4.093   0.573   3.679
 2847SOL    HW110878   4.040   0.653   3.686
 2847SOL    HW210879   4.163   0.585   3.744
 2847SOL     MW10880   4.095   0.586   3.687
 2848SOL     OW10881   4.163   0.647   3.425
 2848SOL    HW110882   4.243   0.697   3.411
 2848SOL    HW210883   4.154   0.641   3.520
 2848SOL     MW10884   4.172   0.653   3.435
 2849SOL     OW10885   4.484   1.797   2.799
 2849SOL    HW110886   4.573   1.812   2.829
 2849SOL    HW210887   4.479   1.844   2.715
 2849SOL     MW10888   4.494   1.805   2.792
 2850SOL     OW10889   4.431   1.577   1.904
 2850SOL    HW110890   4.371   1.646   1.874
 2850SOL    HW210891   4.376   1.519   1.957
 2850SOL     MW10892   4.415   1.579   1.906
 2851SOL     OW10893   4.676   0.406   3.212
 2851SOL    HW110894   4.595   0.447   3.240
 2851SOL    HW210895   4.723   0.474   3.164
 2851SOL     MW10896   4.671   0.421   3.210
 2852SOL     OW10897   4.936   0.744   2.835
 2852SOL    HW110898   4.949   0.838   2.845
 2852SOL    HW210899   4.897   0.734   2.749
 2852SOL     MW10900   4.932   0.755   2.825
 2853SOL     OW10901   4.388   0.939   2.639
 2853SOL    HW110902   4.299   0.930   2.672
 2853SOL    HW210903   4.392   1.029   2.607
 2853SOL     MW10904   4.377   0.950   2.639
 2854SOL     OW10905   4.158   0.209   3.451
 2854SOL    HW110906   4.079   0.227   3.503
 2854SOL    HW210907   4.153   0.271   3.378
 2854SOL     MW10908   4.148   0.219   3.448
 2855SOL     OW10909   4.062   1.621   2.293
 2855SOL    HW110910   4.023   1.668   2.219
 2855SOL    HW210911   3.996   1.556   2.318
 2855SOL     MW10912   4.049   1.619   2.287
 2856SOL     OW10913   4.554   1.030   2.317
 2856SOL    HW110914   4.556   1.004   2.224
 2856SOL    HW210915   4.612   0.967   2.360
 2856SOL     MW10916   4.562   1.019   2.311
 2857SOL     OW10917   5.111   1.798   2.519
 2857SOL    HW110918   5.054   1.751   2.458
 2857SOL    HW210919   5.197   1.759   2.506
 2857SOL     MW10920   5.114   1.789   2.509
 2858SOL     OW10921   3.869   1.208   2.584
 2858SOL    HW110922   3.933   1.240   2.647
 2858SOL    HW210923   3.918   1.144   2.532
 2858SOL     MW10924   3.884   1.204   2.585
 2859SOL     OW10925   4.369   1.284   3.566
 2859SOL    HW110926   4.417   1.367   3.553
 2859SOL    HW210927   4.426   1.232   3.622
 2859SOL     MW10928   4.383   1.288   3.572
 2860SOL     OW10929   4.830   1.363   3.315
 2860SOL    HW110930   4.741   1.369   3.283
 2860SOL    HW210931   4.874   1.442   3.283
 2860SOL     MW10932   4.825   1.373   3.307
 2861SOL     OW10933   4.123   0.031   3.657
 2861SOL    HW110934   4.051  -0.004   3.605
 2861SOL    HW210935   4.181   0.072   3.592
 2861SOL     MW10936   4.121   0.032   3.642
 2862SOL     OW10937   4.864   0.945   2.162
 2862SOL    HW110938   4.774   0.966   2.137
 2862SOL    HW210939   4.891   1.018   2.218
 2862SOL     MW10940   4.856   0.957   2.165
 2863SOL     OW10941   4.364   1.294   2.854
 2863SOL    HW110942   4.357   1.273   2.948
 2863SOL    HW210943   4.282   1.262   2.817
 2863SOL     MW10944   4.352   1.288   2.861
 2864SOL     OW10945   3.810   1.386   3.517
 2864SOL    HW110946   3.854   1.319   3.463
 2864SOL    HW210947   3.725   1.348   3.537
 2864SOL     MW10948   3.805   1.372   3.513
 2865SOL     OW10949   4.493   0.061   2.569
 2865SOL    HW110950   4.422   0.122   2.551
 2865SOL    HW210951   4.544   0.058   2.488
 2865SOL     MW10952   4.489   0.067   2.556
 2866SOL     OW10953   4.251   1.301   2.318
 2866SOL    HW110954   4.244   1.333   2.408
 2866SOL    HW210955   4.161   1.285   2.290
 2866SOL     MW10956   4.239   1.303   2.325
 2867SOL     OW10957   4.846   1.694   3.227
 2867SOL    HW110958   4.766   1.679   3.177
 2867SOL    HW210959   4.853   1.789   3.234
 2867SOL     MW10960   4.837   1.705   3.221
 2868SOL     OW10961   4.453   0.718   3.699
 2868SOL    HW110962   4.523   0.660   3.671
 2868SOL    HW210963   4.396   0.663   3.754
 2868SOL     MW10964   4.455   0.705   3.703
 2869SOL     OW10965   4.779   0.984   3.223
 2869SOL    HW110966   4.822   1.019   3.301
 2869SOL    HW210967   4.762   1.061   3.169
 2869SOL     MW10968   4.782   0.999   3.226
 2870SOL     OW10969   4.170   0.126   2.525
 2870SOL    HW110970   4.220   0.169   2.456
 2870SOL    HW210971   4.085   0.170   2.525
 2870SOL     MW10972   4.167   0.139   2.516
 2871SOL     OW10973   3.929   1.188   3.385
 2871SOL    HW110974   3.957   1.141   3.463
 2871SOL    HW210975   3.850   1.143   3.356
 2871SOL     MW10976   3.922   1.177   3.391
 2872SOL     OW10977   4.437   0.515   3.352
 2872SOL    HW110978   4.409   0.603   3.376
 2872SOL    HW210979   4.406   0.459   3.423
 2872SOL     MW10980   4.429   0.518   3.364
 2873SOL     OW10981   4.979   0.733   2.071
 2873SOL    HW110982   5.026   0.751   1.990
 2873SOL    HW210983   4.945   0.817   2.099
 2873SOL     MW10984   4.981   0.747   2.064
 2874SOL     OW10985   4.092   0.911   2.565
 2874SOL    HW110986   4.150   0.967   2.513
 2874SOL    HW210987   4.136   0.826   2.567
 2874SOL     MW10988   4.105   0.908   2.558
 2875SOL     OW10989   4.818   0.225   2.561
 2875SOL    HW110990   4.838   0.300   2.505
 2875SOL    HW210991   4.798   0.264   2.646
 2875SOL     MW10992   4.819   0.241   2.565
 2876SOL     OW10993   4.714   1.475   1.893
 2876SOL    HW110994   4.741   1.553   1.845
 2876SOL    HW210995   4.621   1.490   1.912
 2876SOL     MW10996   4.705   1.488   1.889
 2877SOL     OW10997   3.799   1.511   2.737
 2877SOL    HW110998   3.831   1.515   2.828
 2877SOL    HW210999   3.704   1.519   2.745
 2877SOL     MW11000   3.791   1.514   2.750
 2878SOL     OW11001   4.371   1.736   3.346
 2878SOL    HW111002   4.288   1.721   3.391
 2878SOL    HW211003   4.430   1.669   3.381
 2878SOL     MW11004   4.369   1.726   3.356
 2879SOL     OW11005   5.062   0.035   2.080
 2879SOL    HW111006   5.136   0.079   2.123
 2879SOL    HW211007   4.986   0.089   2.102
 2879SOL     MW11008   5.062   0.047   2.088
 2880SOL     OW11009   4.336   1.745   3.074
 2880SOL    HW111010   4.388   1.822   3.051
 2880SOL    HW211011   4.345   1.737   3.169
 2880SOL     MW11012   4.345   1.752   3.085
 2881SOL     OW11013   4.492   1.104   3.235
 2881SOL    HW111014   4.551   1.050   3.288
 2881SOL    HW211015   4.507   1.076   3.145
 2881SOL     MW11016   4.502   1.093   3.231
 2882SOL     OW11017   4.495   0.476   2.084
 2882SOL    HW111018   4.568   0.525   2.047
 2882SOL    HW211019   4.511   0.385   2.058
 2882SOL     MW11020   4.507   0.471   2.077
 2883SOL     OW11021   3.970   0.985   2.182
 2883SOL    HW111022   3.907   1.001   2.111
 2883SOL    HW211023   3.917   0.948   2.253
 2883SOL     MW11024   3.955   0.982   2.182
 2884SOL     OW11025   4.326   1.339   2.041
 2884SOL    HW111026   4.341   1.315   2.133
 2884SOL    HW211027   4.234   1.317   2.025
 2884SOL     MW11028   4.316   1.332   2.051
 2885SOL     OW11029   4.124   1.728   2.762
 2885SOL    HW111030   4.128   1.639   2.797
 2885SOL    HW211031   4.150   1.719   2.671
 2885SOL     MW11032   4.127   1.716   2.754
 2886SOL     OW11033   4.741   1.206   3.005
 2886SOL    HW111034   4.673   1.140   3.021
 2886SOL    HW211035   4.759   1.200   2.912
 2886SOL     MW11036   4.734   1.197   2.996
 2887SOL     OW11037   3.830   1.481   3.256
 2887SOL    HW111038   3.820   1.439   3.342
 2887SOL    HW211039   3.751   1.534   3.246
 2887SOL     MW11040   3.819   1.482   3.267
 2888SOL     OW11041   4.385   0.781   3.446
 2888SOL    HW111042   4.378   0.876   3.434
 2888SOL    HW211043   4.394   0.770   3.541
 2888SOL     MW11044   4.386   0.793   3.456
 2889SOL     OW11045   4.201   0.451   2.639
 2889SOL    HW111046   4.272   0.399   2.602
 2889SOL    HW211047   4.187   0.416   2.726
 2889SOL     MW11048   4.209   0.440   2.646
 2890SOL     OW11049   4.837   0.392   2.363
 2890SOL    HW111050   4.859   0.329   2.295
 2890SOL    HW211051   4.742   0.384   2.374
 2890SOL     MW11052   4.827   0.383   2.355
 2891SOL     OW11053   3.922   0.082   2.295
 2891SOL    HW111054   3.993   0.103   2.234
 2891SOL    HW211055   3.876   0.010   2.253
 2891SOL     MW11056   3.926   0.076   2.281
 2892SOL     OW11057   5.047   1.133   2.325
 2892SOL    HW111058   5.019   1.219   2.358
 2892SOL    HW211059   5.075   1.149   2.235
 2892SOL     MW11060   5.047   1.147   2.317
 2893SOL     OW11061   3.938   0.775   3.379
 2893SOL    HW111062   3.959   0.844   3.317
 2893SOL    HW211063   4.018   0.722   3.384
 2893SOL     MW11064   3.951   0.776   3.373
 2894SOL     OW11065   3.923   0.790   3.646
 2894SOL    HW111066   3.849   0.734   3.672
 2894SOL    HW211067   3.918   0.793   3.551
 2894SOL     MW11068   3.912   0.783   3.636
 2895SOL     OW11069   4.089   0.077   3.096
 2895SOL    HW111070   4.132   0.161   3.116
 2895SOL    HW211071   4.162   0.015   3.089
 2895SOL     MW11072   4.104   0.080   3.097
 2896SOL     OW11073   4.130   0.744   2.274
 2896SOL    HW111074   4.130   0.839   2.259
 2896SOL    HW211075   4.207   0.728   2.328
 2896SOL     MW11076   4.140   0.755   2.279
 2897SOL     OW11077   4.375   0.206   3.152
 2897SOL    HW111078   4.306   0.269   3.173
 2897SOL    HW211079   4.402   0.170   3.237
 2897SOL     MW11080   4.369   0.209   3.165
 2898SOL     OW11081   3.758   1.047   2.021
 2898SOL    HW111082   3.727   1.112   2.084
 2898SOL    HW211083   3.707   0.969   2.040
 2898SOL     MW11084   3.748   1.044   2.031
 2899SOL     OW11085   4.342   1.847   1.963
 2899SOL    HW111086   4.247   1.847   1.955
 2899SOL    HW211087   4.358   1.793   2.041
 2899SOL     MW11088   4.332   1.841   1.972
 2900SOL     OW11089   4.652   0.724   3.310
 2900SOL    HW111090   4.721   0.791   3.307
 2900SOL    HW211091   4.585   0.762   3.366
 2900SOL     MW11092   4.653   0.737   3.317
 2901SOL     OW11093   4.070   1.024   3.558
 2901SOL    HW111094   4.024   0.940   3.560
 2901SOL    HW211095   4.127   1.018   3.482
 2901SOL     MW11096   4.072   1.012   3.550
 2902SOL     OW11097   4.321   1.399   2.559
 2902SOL    HW111098   4.386   1.332   2.580
 2902SOL    HW211099   4.373   1.476   2.536
 2902SOL     MW11100   4.336   1.401   2.558
 2903SOL     OW11101   4.582   0.564   2.689
 2903SOL    HW111102   4.522   0.582   2.761
 2903SOL    HW211103   4.616   0.476   2.708
 2903SOL     MW11104   4.578   0.554   2.702
 2904SOL     OW11105   4.600   0.967   2.063
 2904SOL    HW111106   4.586   0.879   2.028
 2904SOL    HW211107   4.551   1.024   2.004
 2904SOL     MW11108   4.592   0.962   2.051
 2905SOL     OW11109   4.013   0.691   2.842
 2905SOL    HW111110   3.963   0.690   2.923
 2905SOL    HW211111   4.033   0.783   2.826
 2905SOL     MW11112   4.009   0.703   2.850
 2906SOL     OW11113   4.608   0.736   2.279
 2906SOL    HW111114   4.588   0.722   2.186
 2906SOL    HW211115   4.701   0.715   2.286
 2906SOL     MW11116   4.618   0.731   2.268
 2907SOL     OW11117   3.935   0.359   3.583
 2907SOL    HW111118   3.892   0.418   3.520
 2907SOL    HW211119   4.003   0.414   3.623
 2907SOL     MW11120   3.939   0.374   3.580
 2908SOL     OW11121   5.047   0.979   3.128
 2908SOL    HW111122   5.110   0.976   3.201
 2908SOL    HW211123   4.963   0.997   3.170
 2908SOL     MW11124   5.043   0.981   3.143
 2909SOL     OW11125   4.591   1.694   2.317
 2909SOL    HW111126   4.649   1.765   2.344
 2909SOL    HW211127   4.614   1.622   2.375
 2909SOL     MW11128   4.602   1.694   2.328
 2910SOL     OW11129   4.163   1.337   3.369
 2910SOL    HW111130   4.084   1.287   3.392
 2910SOL    HW211131   4.233   1.296   3.419
 2910SOL     MW11132   4.161   1.325   3.379
 2911SOL     OW11133   4.047   0.126   2.052
 2911SOL    HW111134   3.976   0.181   2.020
 2911SOL    HW211135   4.089   0.092   1.973
 2911SOL     MW11136   4.043   0.128   2.038
 2912SOL     OW11137   3.803   0.225   1.901
 2912SOL    HW111138   3.770   0.304   1.945
 2912SOL    HW211139   3.858   0.258   1.830
 2912SOL     MW11140   3.806   0.239   1.898
 2913SOL     OW11141   3.837   1.482   2.090
 2913SOL    HW111142   3.854   1.566   2.132
 2913SOL    HW211143   3.872   1.491   2.002
 2913SOL     MW11144   3.842   1.495   2.084
 2914SOL     OW11145   4.266   1.022   4.222
 2914SOL    HW111146   4.356   0.997   4.206
 2914SOL    HW211147   4.262   1.115   4.199
 2914SOL     MW11148   4.278   1.031   4.217
 2915SOL     OW11149   4.550   0.478   4.235
 2915SOL    HW111150   4.525   0.566   4.263
 2915SOL    HW211151   4.547   0.481   4.139
 2915SOL     MW11152   4.546   0.490   4.227
 2916SOL     OW11153   4.478   1.188   4.425
 2916SOL    HW111154   4.558   1.191   4.477
 2916SOL    HW211155   4.506   1.155   4.339
 2916SOL     MW11156   4.492   1.184   4.420
 2917SOL     OW11157   4.503   1.529   5.328
 2917SOL    HW111158   4.587   1.555   5.367
 2917SOL    HW211159   4.527   1.473   5.254
 2917SOL     MW11160   4.517   1.525   5.323
 2918SOL     OW11161   4.397   0.518   4.793
 2918SOL    HW111162   4.303   0.514   4.811
 2918SOL    HW211163   4.427   0.427   4.802
 2918SOL     MW11164   4.388   0.506   4.796
 2919SOL     OW11165   4.104   1.305   4.607
 2919SOL    HW111166   4.080   1.358   4.683
 2919SOL    HW211167   4.160   1.363   4.555
 2919SOL     MW11168   4.108   1.320   4.610
 2920SOL     OW11169   4.666   0.949   4.417
 2920SOL    HW111170   4.580   0.936   4.457
 2920SOL    HW211171   4.719   0.876   4.449
 2920SOL     MW11172   4.662   0.938   4.426
 2921SOL     OW11173   3.989   1.245   4.139
 2921SOL    HW111174   3.937   1.313   4.095
 2921SOL    HW211175   3.986   1.171   4.079
 2921SOL     MW11176   3.981   1.244   4.126
 2922SOL     OW11177   4.651   1.708   3.917
 2922SOL    HW111178   4.606   1.724   4.000
 2922SOL    HW211179   4.582   1.673   3.859
 2922SOL     MW11180   4.637   1.705   3.919
 2923SOL     OW11181   3.872   1.599   4.866
 2923SOL    HW111182   3.855   1.545   4.943
 2923SOL    HW211183   3.860   1.689   4.896
 2923SOL     MW11184   3.869   1.603   4.880
 2924SOL     OW11185   5.238   1.062   4.634
 2924SOL    HW111186   5.241   0.996   4.565
 2924SOL    HW211187   5.323   1.105   4.630
 2924SOL     MW11188   5.250   1.058   4.625
 2925SOL     OW11189   4.179   1.701   4.372
 2925SOL    HW111190   4.211   1.789   4.350
 2925SOL    HW211191   4.132   1.673   4.294
 2925SOL     MW11192   4.178   1.709   4.359
 2926SOL     OW11193   3.895   1.761   3.949
 2926SOL    HW111194   3.924   1.851   3.941
 2926SOL    HW211195   3.845   1.744   3.870
 2926SOL     MW11196   3.893   1.769   3.938
 2927SOL     OW11197   5.299   1.569   3.920
 2927SOL    HW111198   5.347   1.638   3.966
 2927SOL    HW211199   5.220   1.613   3.889
 2927SOL     MW11200   5.294   1.583   3.923
 2928SOL     OW11201   3.924   0.220   4.395
 2928SOL    HW111202   3.915   0.160   4.321
 2928SOL    HW211203   3.857   0.191   4.458
 2928SOL     MW11204   3.914   0.207   4.393
 2929SOL     OW11205   4.867   1.313   3.956
 2929SOL    HW111206   4.817   1.315   4.038
 2929SOL    HW211207   4.801   1.331   3.888
 2929SOL     MW11208   4.853   1.315   3.958
 2930SOL     OW11209   3.871   0.393   4.758
 2930SOL    HW111210   3.843   0.484   4.767
 2930SOL    HW211211   3.808   0.354   4.697
 2930SOL     MW11212   3.858   0.399   4.752
 2931SOL     OW11213   4.330   1.731   4.064
 2931SOL    HW111214   4.251   1.689   4.097
 2931SOL    HW211215   4.396   1.714   4.131
 2931SOL     MW11216   4.329   1.723   4.077
 2932SOL     OW11217   4.466   1.146   3.771
 2932SOL    HW111218   4.388   1.092   3.758
 2932SOL    HW211219   4.437   1.219   3.824
 2932SOL     MW11220   4.452   1.148   3.776
 2933SOL     OW11221   3.855   0.668   4.928
 2933SOL    HW111222   3.917   0.698   4.994
 2933SOL    HW211223   3.789   0.737   4.922
 2933SOL     MW11224   3.854   0.681   4.935
 2934SOL     OW11225   4.002   1.096   4.887
 2934SOL    HW111226   4.055   1.171   4.912
 2934SOL    HW211227   3.921   1.134   4.853
 2934SOL     MW11228   3.998   1.111   4.887
 2935SOL     OW11229   4.542   1.000   4.875
 2935SOL    HW111230   4.570   0.909   4.887
 2935SOL    HW211231   4.471   0.994   4.811
 2935SOL     MW11232   4.535   0.988   4.870
 2936SOL     OW11233   4.479   0.123   5.254
 2936SOL    HW111234   4.456   0.031   5.256
 2936SOL    HW211235   4.565   0.125   5.211
 2936SOL     MW11236   4.486   0.113   5.250
 2937SOL     OW11237   4.484   1.797   4.667
 2937SOL    HW111238   4.573   1.812   4.697
 2937SOL    HW211239   4.479   1.844   4.583
 2937SOL     MW11240   4.494   1.805   4.660
 2938SOL     OW11241   3.865   1.477   4.332
 2938SOL    HW111242   3.837   1.516   4.414
 2938SOL    HW211243   3.885   1.386   4.354
 2938SOL     MW11244   3.863   1.469   4.345
 2939SOL     OW11245   4.431   1.577   3.772
 2939SOL    HW111246   4.371   1.646   3.742
 2939SOL    HW211247   4.376   1.519   3.825
 2939SOL     MW11248   4.415   1.579   3.774
 2940SOL     OW11249   4.869   0.222   3.995
 2940SOL    HW111250   4.802   0.198   3.932
 2940SOL    HW211251   4.934   0.271   3.944
 2940SOL     MW11252   4.869   0.224   3.980
 2941SOL     OW11253   4.936   0.744   4.703
 2941SOL    HW111254   4.949   0.838   4.713
 2941SOL    HW211255   4.897   0.734   4.617
 2941SOL     MW11256   4.932   0.755   4.693
 2942SOL     OW11257   4.388   0.939   4.507
 2942SOL    HW111258   4.299   0.930   4.540
 2942SOL    HW211259   4.392   1.029   4.475
 2942SOL     MW11260   4.377   0.950   4.507
 2943SOL     OW11261   4.806   0.726   4.459
 2943SOL    HW111262   4.743   0.658   4.483
 2943SOL    HW211263   4.826   0.707   4.367
 2943SOL     MW11264   4.800   0.713   4.451
 2944SOL     OW11265   4.062   1.621   4.161
 2944SOL    HW111266   4.023   1.668   4.087
 2944SOL    HW211267   3.996   1.556   4.186
 2944SOL     MW11268   4.049   1.619   4.155
 2945SOL     OW11269   4.554   1.030   4.185
 2945SOL    HW111270   4.556   1.004   4.092
 2945SOL    HW211271   4.612   0.967   4.228
 2945SOL     MW11272   4.562   1.019   4.179
 2946SOL     OW11273   5.111   1.798   4.387
 2946SOL    HW111274   5.054   1.751   4.326
 2946SOL    HW211275   5.197   1.759   4.374
 2946SOL     MW11276   5.114   1.789   4.377
 2947SOL     OW11277   3.869   1.208   4.452
 2947SOL    HW111278   3.933   1.240   4.515
 2947SOL    HW211279   3.918   1.144   4.400
 2947SOL     MW11280   3.884   1.204   4.453
 2948SOL     OW11281   4.712   0.083   3.790
 2948SOL    HW111282   4.768   0.075   3.712
 2948SOL    HW211283   4.689  -0.007   3.812
 2948SOL     MW11284   4.717   0.070   3.783
 2949SOL     OW11285   4.211   0.972   3.787
 2949SOL    HW111286   4.134   0.985   3.843
 2949SOL    HW211287   4.175   0.936   3.706
 2949SOL     MW11288   4.197   0.968   3.784
 2950SOL     OW11289   4.864   0.945   4.030
 2950SOL    HW111290   4.774   0.966   4.005
 2950SOL    HW211291   4.891   1.018   4.086
 2950SOL     MW11292   4.856   0.957   4.033
 2951SOL     OW11293   4.364   1.294   4.722
 2951SOL    HW111294   4.357   1.273   4.816
 2951SOL    HW211295   4.282   1.262   4.685
 2951SOL     MW11296   4.352   1.288   4.729
 2952SOL     OW11297   4.251   1.301   4.186
 2952SOL    HW111298   4.244   1.333   4.276
 2952SOL    HW211299   4.161   1.285   4.158
 2952SOL     MW11300   4.239   1.303   4.193
 2953SOL     OW11301   4.846   1.694   5.095
 2953SOL    HW111302   4.766   1.679   5.045
 2953SOL    HW211303   4.853   1.789   5.102
 2953SOL     MW11304   4.837   1.705   5.089
 2954SOL     OW11305   4.818   0.225   4.429
 2954SOL    HW111306   4.838   0.300   4.373
 2954SOL    HW211307   4.798   0.264   4.514
 2954SOL     MW11308   4.819   0.241   4.433
 2955SOL     OW11309   4.714   1.475   3.761
 2955SOL    HW111310   4.741   1.553   3.713
 2955SOL    HW211311   4.621   1.490   3.780
 2955SOL     MW11312   4.705   1.488   3.757
 2956SOL     OW11313   3.799   1.511   4.605
 2956SOL    HW111314   3.831   1.515   4.696
 2956SOL    HW211315   3.704   1.519   4.613
 2956SOL     MW11316   3.791   1.514   4.618
 2957SOL     OW11317   4.180   0.376   5.041
 2957SOL    HW111318   4.213   0.457   5.081
 2957SOL    HW211319   4.153   0.402   4.953
 2957SOL     MW11320   4.179   0.390   5.035
 2958SOL     OW11321   4.134   0.343   4.777
 2958SOL    HW111322   4.164   0.257   4.748
 2958SOL    HW211323   4.039   0.336   4.780
 2958SOL     MW11324   4.126   0.332   4.775
 2959SOL     OW11325   4.277   0.121   4.668
 2959SOL    HW111326   4.287   0.030   4.694
 2959SOL    HW211327   4.233   0.117   4.583
 2959SOL     MW11328   4.273   0.109   4.660
 2960SOL     OW11329   4.988   1.025   4.727
 2960SOL    HW111330   5.002   0.997   4.818
 2960SOL    HW211331   5.074   1.056   4.699
 2960SOL     MW11332   5.001   1.026   4.736
 2961SOL     OW11333   5.062   0.035   3.948
 2961SOL    HW111334   5.136   0.079   3.991
 2961SOL    HW211335   4.986   0.089   3.970
 2961SOL     MW11336   5.062   0.047   3.956
 2962SOL     OW11337   4.482   0.253   4.780
 2962SOL    HW111338   4.455   0.255   4.871
 2962SOL    HW211339   4.412   0.205   4.735
 2962SOL     MW11340   4.470   0.249   4.787
 2963SOL     OW11341   4.312   1.061   5.291
 2963SOL    HW111342   4.349   1.066   5.203
 2963SOL    HW211343   4.351   1.134   5.338
 2963SOL     MW11344   4.322   1.071   5.286
 2964SOL     OW11345   4.495   0.476   3.952
 2964SOL    HW111346   4.568   0.525   3.915
 2964SOL    HW211347   4.511   0.385   3.926
 2964SOL     MW11348   4.507   0.471   3.945
 2965SOL     OW11349   4.326   1.339   3.909
 2965SOL    HW111350   4.341   1.315   4.001
 2965SOL    HW211351   4.234   1.317   3.893
 2965SOL     MW11352   4.316   1.332   3.919
 2966SOL     OW11353   4.865   1.570   4.061
 2966SOL    HW111354   4.873   1.488   4.012
 2966SOL    HW211355   4.784   1.609   4.028
 2966SOL     MW11356   4.855   1.565   4.051
 2967SOL     OW11357   4.124   1.728   4.630
 2967SOL    HW111358   4.128   1.639   4.665
 2967SOL    HW211359   4.150   1.719   4.539
 2967SOL     MW11360   4.127   1.716   4.622
 2968SOL     OW11361   4.201   0.451   4.507
 2968SOL    HW111362   4.272   0.399   4.470
 2968SOL    HW211363   4.187   0.416   4.594
 2968SOL     MW11364   4.209   0.440   4.514
 2969SOL     OW11365   4.517   1.544   4.583
 2969SOL    HW111366   4.445   1.481   4.596
 2969SOL    HW211367   4.478   1.629   4.601
 2969SOL     MW11368   4.501   1.547   4.586
 2970SOL     OW11369   4.837   0.392   4.231
 2970SOL    HW111370   4.859   0.329   4.163
 2970SOL    HW211371   4.742   0.384   4.242
 2970SOL     MW11372   4.827   0.383   4.223
 2971SOL     OW11373   3.922   0.082   4.163
 2971SOL    HW111374   3.993   0.103   4.102
 2971SOL    HW211375   3.876   0.010   4.121
 2971SOL     MW11376   3.926   0.076   4.149
 2972SOL     OW11377   5.047   1.133   4.193
 2972SOL    HW111378   5.019   1.219   4.226
 2972SOL    HW211379   5.075   1.149   4.103
 2972SOL     MW11380   5.047   1.147   4.185
 2973SOL     OW11381   4.709   0.053   4.246
 2973SOL    HW111382   4.746   0.112   4.311
 2973SOL    HW211383   4.686   0.109   4.172
 2973SOL     MW11384   4.710   0.068   4.245
 2974SOL     OW11385   3.938   0.775   5.247
 2974SOL    HW111386   3.959   0.844   5.185
 2974SOL    HW211387   4.018   0.722   5.252
 2974SOL     MW11388   3.951   0.776   5.241
 2975SOL     OW11389   3.889   0.475   4.431
 2975SOL    HW111390   3.951   0.482   4.504
 2975SOL    HW211391   3.889   0.382   4.408
 2975SOL     MW11392   3.897   0.464   4.438
 2976SOL     OW11393   4.571   0.736   4.915
 2976SOL    HW111394   4.529   0.654   4.891
 2976SOL    HW211395   4.572   0.735   5.011
 2976SOL     MW11396   4.564   0.725   4.924
 2977SOL     OW11397   4.342   1.847   3.831
 2977SOL    HW111398   4.247   1.847   3.823
 2977SOL    HW211399   4.358   1.793   3.909
 2977SOL     MW11400   4.332   1.841   3.840
 2978SOL     OW11401   4.321   1.399   4.427
 2978SOL    HW111402   4.386   1.332   4.448
 2978SOL    HW211403   4.373   1.476   4.404
 2978SOL     MW11404   4.336   1.401   4.426
 2979SOL     OW11405   4.582   0.564   4.557
 2979SOL    HW111406   4.522   0.582   4.629
 2979SOL    HW211407   4.616   0.476   4.576
 2979SOL     MW11408   4.578   0.554   4.570
 2980SOL     OW11409   4.600   0.967   3.931
 2980SOL    HW111410   4.586   0.879   3.896
 2980SOL    HW211411   4.551   1.024   3.872
 2980SOL     MW11412   4.592   0.962   3.919
 2981SOL     OW11413   5.000   1.333   4.940
 2981SOL    HW111414   5.011   1.300   5.029
 2981SOL    HW211415   4.919   1.292   4.909
 2981SOL     MW11416   4.990   1.325   4.946
 2982SOL     OW11417   4.013   0.691   4.710
 2982SOL    HW111418   3.963   0.690   4.791
 2982SOL    HW211419   4.033   0.783   4.694
 2982SOL     MW11420   4.009   0.703   4.718
 2983SOL     OW11421   4.591   1.694   4.185
 2983SOL    HW111422   4.649   1.765   4.212
 2983SOL    HW211423   4.614   1.622   4.243
 2983SOL     MW11424   4.602   1.694   4.196
 2984SOL     OW11425   4.047   0.126   3.920
 2984SOL    HW111426   3.976   0.181   3.888
 2984SOL    HW211427   4.089   0.092   3.841
 2984SOL     MW11428   4.043   0.128   3.906
 2985SOL     OW11429   3.803   0.225   3.769
 2985SOL    HW111430   3.770   0.304   3.813
 2985SOL    HW211431   3.858   0.258   3.698
 2985SOL     MW11432   3.806   0.239   3.766
 2986SOL     OW11433   3.837   1.482   3.958
 2986SOL    HW111434   3.854   1.566   4.000
 2986SOL    HW211435   3.872   1.491   3.870
 2986SOL     MW11436   3.842   1.495   3.952
 2987SOL     OW11437   4.266   2.890   0.486
 2987SOL    HW111438   4.356   2.865   0.470
 2987SOL    HW211439   4.262   2.983   0.463
 2987SOL     MW11440   4.278   2.899   0.481
 2988SOL     OW11441   4.761   3.478   1.629
 2988SOL    HW111442   4.802   3.514   1.550
 2988SOL    HW211443   4.796   3.389   1.636
 2988SOL     MW11444   4.772   3.471   1.620
 2989SOL     OW11445   4.550   2.346   0.499
 2989SOL    HW111446   4.525   2.434   0.527
 2989SOL    HW211447   4.547   2.349   0.403
 2989SOL     MW11448   4.546   2.358   0.491
 2990SOL     OW11449   3.992   2.374   0.427
 2990SOL    HW111450   4.024   2.462   0.409
 2990SOL    HW211451   3.980   2.372   0.522
 2990SOL     MW11452   3.995   2.386   0.439
 2991SOL     OW11453   4.070   2.787   1.328
 2991SOL    HW111454   4.133   2.734   1.279
 2991SOL    HW211455   4.051   2.861   1.271
 2991SOL     MW11456   4.076   2.789   1.315
 2992SOL     OW11457   4.391   2.129   0.514
 2992SOL    HW111458   4.449   2.205   0.516
 2992SOL    HW211459   4.326   2.150   0.447
 2992SOL     MW11460   4.390   2.141   0.505
 2993SOL     OW11461   4.478   3.056   0.689
 2993SOL    HW111462   4.558   3.059   0.741
 2993SOL    HW211463   4.506   3.023   0.603
 2993SOL     MW11464   4.492   3.052   0.684
 2994SOL     OW11465   4.503   3.397   1.592
 2994SOL    HW111466   4.587   3.423   1.631
 2994SOL    HW211467   4.527   3.341   1.518
 2994SOL     MW11468   4.517   3.393   1.587
 2995SOL     OW11469   4.592   3.246   1.365
 2995SOL    HW111470   4.556   3.312   1.305
 2995SOL    HW211471   4.520   3.184   1.378
 2995SOL     MW11472   4.578   3.246   1.359
 2996SOL     OW11473   4.397   2.386   1.057
 2996SOL    HW111474   4.303   2.382   1.075
 2996SOL    HW211475   4.427   2.295   1.066
 2996SOL     MW11476   4.388   2.374   1.060
 2997SOL     OW11477   3.840   3.646   0.836
 2997SOL    HW111478   3.929   3.638   0.871
 2997SOL    HW211479   3.804   3.558   0.841
 2997SOL     MW11480   3.847   3.633   0.841
 2998SOL     OW11481   4.074   3.469   1.466
 2998SOL    HW111482   3.982   3.445   1.451
 2998SOL    HW211483   4.118   3.386   1.483
 2998SOL     MW11484   4.068   3.454   1.465
 2999SOL     OW11485   4.657   3.179   0.398
 2999SOL    HW111486   4.634   3.241   0.466
 2999SOL    HW211487   4.614   3.097   0.424
 2999SOL     MW11488   4.649   3.175   0.409
 3000SOL     OW11489   4.154   2.152   0.366
 3000SOL    HW111490   4.128   2.114   0.282
 3000SOL    HW211491   4.091   2.222   0.382
 3000SOL     MW11492   4.143   2.155   0.357
 3001SOL     OW11493   3.989   3.113   0.403
 3001SOL    HW111494   3.937   3.181   0.359
 3001SOL    HW211495   3.986   3.039   0.343
 3001SOL     MW11496   3.981   3.112   0.390
 3002SOL     OW11497   4.651   3.576   0.181
 3002SOL    HW111498   4.606   3.592   0.264
 3002SOL    HW211499   4.582   3.541   0.123
 3002SOL     MW11500   4.637   3.573   0.183
 3003SOL     OW11501   3.872   3.467   1.130
 3003SOL    HW111502   3.855   3.413   1.207
 3003SOL    HW211503   3.860   3.557   1.160
 3003SOL     MW11504   3.869   3.471   1.144
 3004SOL     OW11505   4.663   2.398   1.771
 3004SOL    HW111506   4.753   2.399   1.738
 3004SOL    HW211507   4.622   2.323   1.729
 3004SOL     MW11508   4.669   2.388   1.762
 3005SOL     OW11509   5.238   2.930   0.898
 3005SOL    HW111510   5.241   2.864   0.829
 3005SOL    HW211511   5.323   2.973   0.894
 3005SOL     MW11512   5.250   2.926   0.889
 3006SOL     OW11513   4.443   2.202   1.721
 3006SOL    HW111514   4.453   2.128   1.661
 3006SOL    HW211515   4.479   2.171   1.804
 3006SOL     MW11516   4.449   2.188   1.723
 3007SOL     OW11517   4.179   3.569   0.636
 3007SOL    HW111518   4.211   3.657   0.614
 3007SOL    HW211519   4.132   3.541   0.558
 3007SOL     MW11520   4.178   3.577   0.623
 3008SOL     OW11521   4.682   1.884   1.098
 3008SOL    HW111522   4.641   1.962   1.060
 3008SOL    HW211523   4.776   1.902   1.093
 3008SOL     MW11524   4.688   1.896   1.093
 3009SOL     OW11525   4.697   2.562   0.128
 3009SOL    HW111526   4.699   2.509   0.049
 3009SOL    HW211527   4.785   2.599   0.134
 3009SOL     MW11528   4.709   2.561   0.117
 3010SOL     OW11529   4.628   2.855   1.593
 3010SOL    HW111530   4.605   2.835   1.683
 3010SOL    HW211531   4.713   2.899   1.598
 3010SOL     MW11532   4.635   2.858   1.605
 3011SOL     OW11533   4.797   2.481   1.187
 3011SOL    HW111534   4.872   2.510   1.134
 3011SOL    HW211535   4.729   2.546   1.171
 3011SOL     MW11536   4.798   2.493   1.177
 3012SOL     OW11537   4.867   3.181   0.220
 3012SOL    HW111538   4.817   3.183   0.302
 3012SOL    HW211539   4.801   3.199   0.152
 3012SOL     MW11540   4.853   3.183   0.222
 3013SOL     OW11541   3.871   2.261   1.022
 3013SOL    HW111542   3.843   2.352   1.031
 3013SOL    HW211543   3.808   2.222   0.961
 3013SOL     MW11544   3.858   2.267   1.016
 3014SOL     OW11545   4.330   3.599   0.328
 3014SOL    HW111546   4.251   3.557   0.361
 3014SOL    HW211547   4.396   3.582   0.395
 3014SOL     MW11548   4.329   3.591   0.341
 3015SOL     OW11549   3.855   2.536   1.192
 3015SOL    HW111550   3.917   2.566   1.258
 3015SOL    HW211551   3.789   2.605   1.186
 3015SOL     MW11552   3.854   2.549   1.199
 3016SOL     OW11553   5.271   3.204   0.045
 3016SOL    HW111554   5.218   3.253  -0.019
 3016SOL    HW211555   5.302   3.270   0.106
 3016SOL     MW11556   5.269   3.218   0.043
 3017SOL     OW11557   4.496   2.093   0.100
 3017SOL    HW111558   4.444   2.013   0.088
 3017SOL    HW211559   4.583   2.070   0.068
 3017SOL     MW11560   4.499   2.079   0.094
 3018SOL     OW11561   3.950   3.645   1.644
 3018SOL    HW111562   3.924   3.713   1.582
 3018SOL    HW211563   3.998   3.582   1.592
 3018SOL     MW11564   3.952   3.645   1.630
 3019SOL     OW11565   4.002   2.964   1.151
 3019SOL    HW111566   4.055   3.039   1.176
 3019SOL    HW211567   3.921   3.002   1.117
 3019SOL     MW11568   3.998   2.979   1.151
 3020SOL     OW11569   3.857   2.733   0.557
 3020SOL    HW111570   3.948   2.748   0.584
 3020SOL    HW211571   3.860   2.654   0.503
 3020SOL     MW11572   3.869   2.725   0.555
 3021SOL     OW11573   4.479   1.991   1.518
 3021SOL    HW111574   4.456   1.899   1.520
 3021SOL    HW211575   4.565   1.993   1.475
 3021SOL     MW11576   4.486   1.981   1.514
 3022SOL     OW11577   4.163   2.515   1.557
 3022SOL    HW111578   4.243   2.565   1.543
 3022SOL    HW211579   4.154   2.509   1.652
 3022SOL     MW11580   4.172   2.521   1.567
 3023SOL     OW11581   4.484   3.665   0.931
 3023SOL    HW111582   4.573   3.680   0.961
 3023SOL    HW211583   4.479   3.712   0.847
 3023SOL     MW11584   4.494   3.673   0.924
 3024SOL     OW11585   4.431   3.445   0.036
 3024SOL    HW111586   4.371   3.514   0.006
 3024SOL    HW211587   4.376   3.387   0.089
 3024SOL     MW11588   4.415   3.447   0.038
 3025SOL     OW11589   4.869   2.090   0.259
 3025SOL    HW111590   4.802   2.066   0.196
 3025SOL    HW211591   4.934   2.139   0.208
 3025SOL     MW11592   4.869   2.092   0.244
 3026SOL     OW11593   4.388   2.807   0.771
 3026SOL    HW111594   4.299   2.798   0.804
 3026SOL    HW211595   4.392   2.897   0.739
 3026SOL     MW11596   4.377   2.818   0.771
 3027SOL     OW11597   4.158   2.077   1.583
 3027SOL    HW111598   4.079   2.095   1.635
 3027SOL    HW211599   4.153   2.139   1.510
 3027SOL     MW11600   4.148   2.087   1.580
 3028SOL     OW11601   4.062   3.489   0.425
 3028SOL    HW111602   4.023   3.536   0.351
 3028SOL    HW211603   3.996   3.424   0.450
 3028SOL     MW11604   4.049   3.487   0.419
 3029SOL     OW11605   4.554   2.898   0.449
 3029SOL    HW111606   4.556   2.872   0.356
 3029SOL    HW211607   4.612   2.835   0.492
 3029SOL     MW11608   4.562   2.887   0.443
 3030SOL     OW11609   5.111   3.666   0.651
 3030SOL    HW111610   5.054   3.619   0.590
 3030SOL    HW211611   5.197   3.627   0.638
 3030SOL     MW11612   5.114   3.657   0.641
 3031SOL     OW11613   4.369   3.152   1.698
 3031SOL    HW111614   4.417   3.235   1.685
 3031SOL    HW211615   4.426   3.100   1.754
 3031SOL     MW11616   4.383   3.156   1.704
 3032SOL     OW11617   4.712   1.951   0.054
 3032SOL    HW111618   4.768   1.943  -0.024
 3032SOL    HW211619   4.689   1.861   0.076
 3032SOL     MW11620   4.717   1.938   0.047
 3033SOL     OW11621   4.830   3.231   1.447
 3033SOL    HW111622   4.741   3.237   1.415
 3033SOL    HW211623   4.874   3.310   1.415
 3033SOL     MW11624   4.825   3.241   1.439
 3034SOL     OW11625   4.123   1.899   1.789
 3034SOL    HW111626   4.051   1.864   1.737
 3034SOL    HW211627   4.181   1.940   1.724
 3034SOL     MW11628   4.121   1.900   1.774
 3035SOL     OW11629   4.147   3.389   1.088
 3035SOL    HW111630   4.192   3.451   1.145
 3035SOL    HW211631   4.054   3.408   1.101
 3035SOL     MW11632   4.140   3.399   1.095
 3036SOL     OW11633   4.569   3.457   1.196
 3036SOL    HW111634   4.593   3.446   1.105
 3036SOL    HW211635   4.492   3.514   1.194
 3036SOL     MW11636   4.561   3.462   1.185
 3037SOL     OW11637   4.864   2.813   0.294
 3037SOL    HW111638   4.774   2.834   0.269
 3037SOL    HW211639   4.891   2.886   0.350
 3037SOL     MW11640   4.856   2.825   0.297
 3038SOL     OW11641   5.228   2.172   1.388
 3038SOL    HW111642   5.175   2.174   1.468
 3038SOL    HW211643   5.213   2.085   1.351
 3038SOL     MW11644   5.220   2.162   1.393
 3039SOL     OW11645   3.810   3.254   1.649
 3039SOL    HW111646   3.854   3.187   1.595
 3039SOL    HW211647   3.725   3.216   1.669
 3039SOL     MW11648   3.805   3.240   1.645
 3040SOL     OW11649   4.493   1.929   0.701
 3040SOL    HW111650   4.422   1.990   0.683
 3040SOL    HW211651   4.544   1.926   0.620
 3040SOL     MW11652   4.489   1.935   0.688
 3041SOL     OW11653   4.846   3.562   1.359
 3041SOL    HW111654   4.766   3.547   1.309
 3041SOL    HW211655   4.853   3.657   1.366
 3041SOL     MW11656   4.837   3.573   1.353
 3042SOL     OW11657   4.779   2.852   1.355
 3042SOL    HW111658   4.822   2.887   1.433
 3042SOL    HW211659   4.762   2.929   1.301
 3042SOL     MW11660   4.782   2.867   1.358
 3043SOL     OW11661   4.170   1.994   0.657
 3043SOL    HW111662   4.220   2.037   0.588
 3043SOL    HW211663   4.085   2.038   0.657
 3043SOL     MW11664   4.167   2.007   0.648
 3044SOL     OW11665   3.929   3.056   1.517
 3044SOL    HW111666   3.957   3.009   1.595
 3044SOL    HW211667   3.850   3.011   1.488
 3044SOL     MW11668   3.922   3.045   1.523
 3045SOL     OW11669   4.437   2.383   1.484
 3045SOL    HW111670   4.409   2.471   1.508
 3045SOL    HW211671   4.406   2.327   1.555
 3045SOL     MW11672   4.429   2.386   1.496
 3046SOL     OW11673   4.979   2.601   0.203
 3046SOL    HW111674   5.026   2.619   0.122
 3046SOL    HW211675   4.945   2.685   0.231
 3046SOL     MW11676   4.981   2.615   0.196
 3047SOL     OW11677   4.092   2.779   0.697
 3047SOL    HW111678   4.150   2.835   0.645
 3047SOL    HW211679   4.136   2.694   0.699
 3047SOL     MW11680   4.105   2.776   0.690
 3048SOL     OW11681   4.818   2.093   0.693
 3048SOL    HW111682   4.838   2.168   0.637
 3048SOL    HW211683   4.798   2.132   0.778
 3048SOL     MW11684   4.819   2.109   0.697
 3049SOL     OW11685   4.714   3.343   0.025
 3049SOL    HW111686   4.741   3.421  -0.023
 3049SOL    HW211687   4.621   3.358   0.044
 3049SOL     MW11688   4.705   3.356   0.021
 3050SOL     OW11689   3.799   3.379   0.869
 3050SOL    HW111690   3.831   3.383   0.960
 3050SOL    HW211691   3.704   3.387   0.877
 3050SOL     MW11692   3.791   3.382   0.882
 3051SOL     OW11693   3.754   2.505   0.416
 3051SOL    HW111694   3.694   2.477   0.486
 3051SOL    HW211695   3.828   2.445   0.422
 3051SOL     MW11696   3.756   2.494   0.425
 3052SOL     OW11697   4.180   2.244   1.305
 3052SOL    HW111698   4.213   2.325   1.345
 3052SOL    HW211699   4.153   2.270   1.217
 3052SOL     MW11700   4.179   2.258   1.299
 3053SOL     OW11701   4.277   1.989   0.932
 3053SOL    HW111702   4.287   1.898   0.958
 3053SOL    HW211703   4.233   1.985   0.847
 3053SOL     MW11704   4.273   1.977   0.924
 3054SOL     OW11705   4.371   3.604   1.478
 3054SOL    HW111706   4.288   3.589   1.523
 3054SOL    HW211707   4.430   3.537   1.513
 3054SOL     MW11708   4.369   3.594   1.488
 3055SOL     OW11709   4.988   2.893   0.991
 3055SOL    HW111710   5.002   2.865   1.082
 3055SOL    HW211711   5.074   2.924   0.963
 3055SOL     MW11712   5.001   2.894   1.000
 3056SOL     OW11713   4.198   3.141   1.221
 3056SOL    HW111714   4.210   3.168   1.312
 3056SOL    HW211715   4.179   3.222   1.174
 3056SOL     MW11716   4.197   3.156   1.226
 3057SOL     OW11717   4.336   3.613   1.206
 3057SOL    HW111718   4.388   3.690   1.183
 3057SOL    HW211719   4.345   3.605   1.301
 3057SOL     MW11720   4.345   3.620   1.217
 3058SOL     OW11721   4.312   2.929   1.555
 3058SOL    HW111722   4.349   2.934   1.467
 3058SOL    HW211723   4.351   3.002   1.602
 3058SOL     MW11724   4.322   2.939   1.550
 3059SOL     OW11725   3.970   2.853   0.314
 3059SOL    HW111726   3.907   2.869   0.243
 3059SOL    HW211727   3.917   2.816   0.385
 3059SOL     MW11728   3.955   2.850   0.314
 3060SOL     OW11729   4.865   3.438   0.325
 3060SOL    HW111730   4.873   3.356   0.276
 3060SOL    HW211731   4.784   3.477   0.292
 3060SOL     MW11732   4.855   3.433   0.315
 3061SOL     OW11733   4.124   3.596   0.894
 3061SOL    HW111734   4.128   3.507   0.929
 3061SOL    HW211735   4.150   3.587   0.803
 3061SOL     MW11736   4.127   3.584   0.886
 3062SOL     OW11737   4.741   3.074   1.137
 3062SOL    HW111738   4.673   3.008   1.153
 3062SOL    HW211739   4.759   3.068   1.044
 3062SOL     MW11740   4.734   3.065   1.128
 3063SOL     OW11741   3.830   3.349   1.388
 3063SOL    HW111742   3.820   3.307   1.474
 3063SOL    HW211743   3.751   3.402   1.378
 3063SOL     MW11744   3.819   3.350   1.399
 3064SOL     OW11745   4.734   2.213   0.958
 3064SOL    HW111746   4.664   2.165   1.003
 3064SOL    HW211747   4.766   2.276   1.022
 3064SOL     MW11748   4.729   2.215   0.972
 3065SOL     OW11749   4.385   2.649   1.578
 3065SOL    HW111750   4.378   2.744   1.566
 3065SOL    HW211751   4.394   2.638   1.673
 3065SOL     MW11752   4.386   2.661   1.588
 3066SOL     OW11753   4.106   3.164   1.836
 3066SOL    HW111754   4.178   3.166   1.773
 3066SOL    HW211755   4.076   3.073   1.835
 3066SOL     MW11756   4.111   3.153   1.828
 3067SOL     OW11757   3.756   3.654   1.843
 3067SOL    HW111758   3.806   3.632   1.765
 3067SOL    HW211759   3.764   3.749   1.851
 3067SOL     MW11760   3.764   3.663   1.834
 3068SOL     OW11761   4.517   3.412   0.847
 3068SOL    HW111762   4.445   3.349   0.860
 3068SOL    HW211763   4.478   3.497   0.865
 3068SOL     MW11764   4.501   3.415   0.850
 3069SOL     OW11765   3.922   1.950   0.427
 3069SOL    HW111766   3.993   1.971   0.366
 3069SOL    HW211767   3.876   1.878   0.385
 3069SOL     MW11768   3.926   1.944   0.413
 3070SOL     OW11769   3.753   2.417   1.570
 3070SOL    HW111770   3.817   2.483   1.545
 3070SOL    HW211771   3.672   2.444   1.527
 3070SOL     MW11772   3.751   2.429   1.562
 3071SOL     OW11773   5.047   3.001   0.457
 3071SOL    HW111774   5.019   3.087   0.490
 3071SOL    HW211775   5.075   3.017   0.367
 3071SOL     MW11776   5.047   3.015   0.449
 3072SOL     OW11777   4.709   1.921   0.510
 3072SOL    HW111778   4.746   1.980   0.575
 3072SOL    HW211779   4.686   1.977   0.436
 3072SOL     MW11780   4.710   1.936   0.509
 3073SOL     OW11781   3.938   2.643   1.511
 3073SOL    HW111782   3.959   2.712   1.449
 3073SOL    HW211783   4.018   2.590   1.516
 3073SOL     MW11784   3.951   2.644   1.505
 3074SOL     OW11785   3.923   2.658   1.778
 3074SOL    HW111786   3.849   2.602   1.804
 3074SOL    HW211787   3.918   2.661   1.683
 3074SOL     MW11788   3.912   2.651   1.768
 3075SOL     OW11789   4.130   2.612   0.406
 3075SOL    HW111790   4.130   2.707   0.391
 3075SOL    HW211791   4.207   2.596   0.460
 3075SOL     MW11792   4.140   2.623   0.411
 3076SOL     OW11793   4.571   2.604   1.179
 3076SOL    HW111794   4.529   2.522   1.155
 3076SOL    HW211795   4.572   2.603   1.275
 3076SOL     MW11796   4.564   2.593   1.188
 3077SOL     OW11797   4.375   2.074   1.284
 3077SOL    HW111798   4.306   2.137   1.305
 3077SOL    HW211799   4.402   2.038   1.369
 3077SOL     MW11800   4.369   2.077   1.297
 3078SOL     OW11801   3.758   2.915   0.153
 3078SOL    HW111802   3.727   2.980   0.216
 3078SOL    HW211803   3.707   2.837   0.172
 3078SOL     MW11804   3.748   2.912   0.163
 3079SOL     OW11805   4.342   3.715   0.095
 3079SOL    HW111806   4.247   3.715   0.087
 3079SOL    HW211807   4.358   3.661   0.173
 3079SOL     MW11808   4.332   3.709   0.104
 3080SOL     OW11809   4.652   2.592   1.442
 3080SOL    HW111810   4.721   2.659   1.439
 3080SOL    HW211811   4.585   2.630   1.498
 3080SOL     MW11812   4.653   2.605   1.449
 3081SOL     OW11813   4.070   2.892   1.690
 3081SOL    HW111814   4.024   2.808   1.692
 3081SOL    HW211815   4.127   2.886   1.614
 3081SOL     MW11816   4.072   2.880   1.682
 3082SOL     OW11817   4.582   2.432   0.821
 3082SOL    HW111818   4.522   2.450   0.893
 3082SOL    HW211819   4.616   2.344   0.840
 3082SOL     MW11820   4.578   2.422   0.834
 3083SOL     OW11821   4.807   3.015   0.840
 3083SOL    HW111822   4.899   2.996   0.858
 3083SOL    HW211823   4.780   2.945   0.780
 3083SOL     MW11824   4.815   3.003   0.834
 3084SOL     OW11825   4.600   2.835   0.195
 3084SOL    HW111826   4.586   2.747   0.160
 3084SOL    HW211827   4.551   2.892   0.136
 3084SOL     MW11828   4.592   2.830   0.183
 3085SOL     OW11829   5.000   3.201   1.204
 3085SOL    HW111830   5.011   3.168   1.293
 3085SOL    HW211831   4.919   3.160   1.173
 3085SOL     MW11832   4.990   3.193   1.210
 3086SOL     OW11833   4.608   2.604   0.411
 3086SOL    HW111834   4.588   2.590   0.318
 3086SOL    HW211835   4.701   2.583   0.418
 3086SOL     MW11836   4.618   2.599   0.400
 3087SOL     OW11837   3.935   2.227   1.715
 3087SOL    HW111838   3.892   2.286   1.652
 3087SOL    HW211839   4.003   2.282   1.755
 3087SOL     MW11840   3.939   2.242   1.712
 3088SOL     OW11841   5.047   2.847   1.260
 3088SOL    HW111842   5.110   2.844   1.333
 3088SOL    HW211843   4.963   2.865   1.302
 3088SOL     MW11844   5.043   2.849   1.275
 3089SOL     OW11845   4.591   3.562   0.449
 3089SOL    HW111846   4.649   3.633   0.476
 3089SOL    HW211847   4.614   3.490   0.507
 3089SOL     MW11848   4.602   3.562   0.460
 3090SOL     OW11849   4.163   3.205   1.501
 3090SOL    HW111850   4.084   3.155   1.524
 3090SOL    HW211851   4.233   3.164   1.551
 3090SOL     MW11852   4.161   3.193   1.511
 3091SOL     OW11853   4.047   1.994   0.184
 3091SOL    HW111854   3.976   2.049   0.152
 3091SOL    HW211855   4.089   1.960   0.105
 3091SOL     MW11856   4.043   1.996   0.170
 3092SOL     OW11857   4.550   2.346   2.367
 3092SOL    HW111858   4.525   2.434   2.395
 3092SOL    HW211859   4.547   2.349   2.271
 3092SOL     MW11860   4.546   2.358   2.359
 3093SOL     OW11861   3.992   2.374   2.295
 3093SOL    HW111862   4.024   2.462   2.277
 3093SOL    HW211863   3.980   2.372   2.390
 3093SOL     MW11864   3.995   2.386   2.307
 3094SOL     OW11865   4.391   2.129   2.382
 3094SOL    HW111866   4.449   2.205   2.384
 3094SOL    HW211867   4.326   2.150   2.315
 3094SOL     MW11868   4.390   2.141   2.373
 3095SOL     OW11869   4.255   2.560   2.548
 3095SOL    HW111870   4.240   2.480   2.599
 3095SOL    HW211871   4.337   2.595   2.582
 3095SOL     MW11872   4.263   2.552   2.560
 3096SOL     OW11873   4.592   3.246   3.233
 3096SOL    HW111874   4.556   3.312   3.173
 3096SOL    HW211875   4.520   3.184   3.246
 3096SOL     MW11876   4.578   3.246   3.227
 3097SOL     OW11877   4.397   2.386   2.925
 3097SOL    HW111878   4.303   2.382   2.943
 3097SOL    HW211879   4.427   2.295   2.934
 3097SOL     MW11880   4.388   2.374   2.928
 3098SOL     OW11881   3.840   3.646   2.704
 3098SOL    HW111882   3.929   3.638   2.739
 3098SOL    HW211883   3.804   3.558   2.709
 3098SOL     MW11884   3.847   3.633   2.709
 3099SOL     OW11885   4.104   3.173   2.739
 3099SOL    HW111886   4.080   3.226   2.815
 3099SOL    HW211887   4.160   3.231   2.687
 3099SOL     MW11888   4.108   3.188   2.742
 3100SOL     OW11889   4.666   2.817   2.549
 3100SOL    HW111890   4.580   2.804   2.589
 3100SOL    HW211891   4.719   2.744   2.581
 3100SOL     MW11892   4.662   2.806   2.558
 3101SOL     OW11893   4.074   3.469   3.334
 3101SOL    HW111894   3.982   3.445   3.319
 3101SOL    HW211895   4.118   3.386   3.351
 3101SOL     MW11896   4.068   3.454   3.333
 3102SOL     OW11897   4.657   3.179   2.266
 3102SOL    HW111898   4.634   3.241   2.334
 3102SOL    HW211899   4.614   3.097   2.292
 3102SOL     MW11900   4.649   3.175   2.277
 3103SOL     OW11901   3.989   3.113   2.271
 3103SOL    HW111902   3.937   3.181   2.227
 3103SOL    HW211903   3.986   3.039   2.211
 3103SOL     MW11904   3.981   3.112   2.258
 3104SOL     OW11905   4.651   3.576   2.049
 3104SOL    HW111906   4.606   3.592   2.132
 3104SOL    HW211907   4.582   3.541   1.991
 3104SOL     MW11908   4.637   3.573   2.051
 3105SOL     OW11909   3.872   3.467   2.998
 3105SOL    HW111910   3.855   3.413   3.075
 3105SOL    HW211911   3.860   3.557   3.028
 3105SOL     MW11912   3.869   3.471   3.012
 3106SOL     OW11913   4.867   2.974   3.438
 3106SOL    HW111914   4.852   3.067   3.423
 3106SOL    HW211915   4.962   2.964   3.438
 3106SOL     MW11916   4.876   2.984   3.435
 3107SOL     OW11917   4.663   2.398   3.639
 3107SOL    HW111918   4.753   2.399   3.606
 3107SOL    HW211919   4.622   2.323   3.597
 3107SOL     MW11920   4.669   2.388   3.630
 3108SOL     OW11921   5.238   2.930   2.766
 3108SOL    HW111922   5.241   2.864   2.697
 3108SOL    HW211923   5.323   2.973   2.762
 3108SOL     MW11924   5.250   2.926   2.757
 3109SOL     OW11925   4.179   3.569   2.504
 3109SOL    HW111926   4.211   3.657   2.482
 3109SOL    HW211927   4.132   3.541   2.426
 3109SOL     MW11928   4.178   3.577   2.491
 3110SOL     OW11929   4.682   1.884   2.966
 3110SOL    HW111930   4.641   1.962   2.928
 3110SOL    HW211931   4.776   1.902   2.961
 3110SOL     MW11932   4.688   1.896   2.961
 3111SOL     OW11933   5.299   3.437   2.052
 3111SOL    HW111934   5.347   3.506   2.098
 3111SOL    HW211935   5.220   3.481   2.021
 3111SOL     MW11936   5.294   3.451   2.055
 3112SOL     OW11937   4.697   2.562   1.996
 3112SOL    HW111938   4.699   2.509   1.917
 3112SOL    HW211939   4.785   2.599   2.002
 3112SOL     MW11940   4.709   2.561   1.985
 3113SOL     OW11941   4.628   2.855   3.461
 3113SOL    HW111942   4.605   2.835   3.551
 3113SOL    HW211943   4.713   2.899   3.466
 3113SOL     MW11944   4.635   2.858   3.473
 3114SOL     OW11945   4.708   1.992   3.221
 3114SOL    HW111946   4.714   1.954   3.134
 3114SOL    HW211947   4.697   2.086   3.206
 3114SOL     MW11948   4.709   2.000   3.209
 3115SOL     OW11949   4.797   2.481   3.055
 3115SOL    HW111950   4.872   2.510   3.002
 3115SOL    HW211951   4.729   2.546   3.039
 3115SOL     MW11952   4.798   2.493   3.045
 3116SOL     OW11953   4.794   2.187   3.438
 3116SOL    HW111954   4.760   2.226   3.357
 3116SOL    HW211955   4.772   2.095   3.431
 3116SOL     MW11956   4.787   2.180   3.428
 3117SOL     OW11957   3.924   2.088   2.527
 3117SOL    HW111958   3.915   2.028   2.453
 3117SOL    HW211959   3.857   2.059   2.590
 3117SOL     MW11960   3.914   2.075   2.525
 3118SOL     OW11961   4.867   3.181   2.088
 3118SOL    HW111962   4.817   3.183   2.170
 3118SOL    HW211963   4.801   3.199   2.020
 3118SOL     MW11964   4.853   3.183   2.090
 3119SOL     OW11965   4.330   3.599   2.196
 3119SOL    HW111966   4.251   3.557   2.229
 3119SOL    HW211967   4.396   3.582   2.263
 3119SOL     MW11968   4.329   3.591   2.209
 3120SOL     OW11969   3.855   2.536   3.060
 3120SOL    HW111970   3.917   2.566   3.126
 3120SOL    HW211971   3.789   2.605   3.054
 3120SOL     MW11972   3.854   2.549   3.067
 3121SOL     OW11973   3.857   2.733   2.425
 3121SOL    HW111974   3.948   2.748   2.452
 3121SOL    HW211975   3.860   2.654   2.371
 3121SOL     MW11976   3.869   2.725   2.423
 3122SOL     OW11977   3.865   3.345   2.464
 3122SOL    HW111978   3.837   3.384   2.546
 3122SOL    HW211979   3.885   3.254   2.486
 3122SOL     MW11980   3.863   3.337   2.477
 3123SOL     OW11981   4.698   3.388   2.499
 3123SOL    HW111982   4.781   3.342   2.483
 3123SOL    HW211983   4.688   3.387   2.595
 3123SOL     MW11984   4.708   3.381   2.509
 3124SOL     OW11985   4.869   2.090   2.127
 3124SOL    HW111986   4.802   2.066   2.064
 3124SOL    HW211987   4.934   2.139   2.076
 3124SOL     MW11988   4.869   2.092   2.112
 3125SOL     OW11989   4.676   2.274   3.212
 3125SOL    HW111990   4.595   2.315   3.240
 3125SOL    HW211991   4.723   2.342   3.164
 3125SOL     MW11992   4.671   2.289   3.210
 3126SOL     OW11993   4.388   2.807   2.639
 3126SOL    HW111994   4.299   2.798   2.672
 3126SOL    HW211995   4.392   2.897   2.607
 3126SOL     MW11996   4.377   2.818   2.639
 3127SOL     OW11997   4.158   2.077   3.451
 3127SOL    HW111998   4.079   2.095   3.503
 3127SOL    HW211999   4.153   2.139   3.378
 3127SOL     MW12000   4.148   2.087   3.448
 3128SOL     OW12001   4.806   2.594   2.591
 3128SOL    HW112002   4.743   2.526   2.615
 3128SOL    HW212003   4.826   2.575   2.499
 3128SOL     MW12004   4.800   2.581   2.583
 3129SOL     OW12005   4.062   3.489   2.293
 3129SOL    HW112006   4.023   3.536   2.219
 3129SOL    HW212007   3.996   3.424   2.318
 3129SOL     MW12008   4.049   3.487   2.287
 3130SOL     OW12009   5.111   3.666   2.519
 3130SOL    HW112010   5.054   3.619   2.458
 3130SOL    HW212011   5.197   3.627   2.506
 3130SOL     MW12012   5.114   3.657   2.509
 3131SOL     OW12013   3.869   3.076   2.584
 3131SOL    HW112014   3.933   3.108   2.647
 3131SOL    HW212015   3.918   3.012   2.532
 3131SOL     MW12016   3.884   3.072   2.585
 3132SOL     OW12017   4.369   3.152   3.566
 3132SOL    HW112018   4.417   3.235   3.553
 3132SOL    HW212019   4.426   3.100   3.622
 3132SOL     MW12020   4.383   3.156   3.572
 3133SOL     OW12021   3.945   3.394   3.706
 3133SOL    HW112022   4.001   3.318   3.721
 3133SOL    HW212023   3.894   3.372   3.628
 3133SOL     MW12024   3.945   3.381   3.697
 3134SOL     OW12025   4.712   1.951   1.922
 3134SOL    HW112026   4.768   1.943   1.844
 3134SOL    HW212027   4.689   1.861   1.944
 3134SOL     MW12028   4.717   1.938   1.915
 3135SOL     OW12029   4.830   3.231   3.315
 3135SOL    HW112030   4.741   3.237   3.283
 3135SOL    HW212031   4.874   3.310   3.283
 3135SOL     MW12032   4.825   3.241   3.307
 3136SOL     OW12033   4.123   1.899   3.657
 3136SOL    HW112034   4.051   1.864   3.605
 3136SOL    HW212035   4.181   1.940   3.592
 3136SOL     MW12036   4.121   1.900   3.642
 3137SOL     OW12037   4.147   3.389   2.956
 3137SOL    HW112038   4.192   3.451   3.013
 3137SOL    HW212039   4.054   3.408   2.969
 3137SOL     MW12040   4.140   3.399   2.963
 3138SOL     OW12041   4.569   3.457   3.064
 3138SOL    HW112042   4.593   3.446   2.973
 3138SOL    HW212043   4.492   3.514   3.062
 3138SOL     MW12044   4.561   3.462   3.053
 3139SOL     OW12045   4.211   2.840   1.919
 3139SOL    HW112046   4.134   2.853   1.975
 3139SOL    HW212047   4.175   2.804   1.838
 3139SOL     MW12048   4.197   2.836   1.916
 3140SOL     OW12049   4.864   2.813   2.162
 3140SOL    HW112050   4.774   2.834   2.137
 3140SOL    HW212051   4.891   2.886   2.218
 3140SOL     MW12052   4.856   2.825   2.165
 3141SOL     OW12053   4.364   3.162   2.854
 3141SOL    HW112054   4.357   3.141   2.948
 3141SOL    HW212055   4.282   3.130   2.817
 3141SOL     MW12056   4.352   3.156   2.861
 3142SOL     OW12057   3.810   3.254   3.517
 3142SOL    HW112058   3.854   3.187   3.463
 3142SOL    HW212059   3.725   3.216   3.537
 3142SOL     MW12060   3.805   3.240   3.513
 3143SOL     OW12061   4.493   1.929   2.569
 3143SOL    HW112062   4.422   1.990   2.551
 3143SOL    HW212063   4.544   1.926   2.488
 3143SOL     MW12064   4.489   1.935   2.556
 3144SOL     OW12065   4.251   3.169   2.318
 3144SOL    HW112066   4.244   3.201   2.408
 3144SOL    HW212067   4.161   3.153   2.290
 3144SOL     MW12068   4.239   3.171   2.325
 3145SOL     OW12069   4.846   3.562   3.227
 3145SOL    HW112070   4.766   3.547   3.177
 3145SOL    HW212071   4.853   3.657   3.234
 3145SOL     MW12072   4.837   3.573   3.221
 3146SOL     OW12073   4.453   2.586   3.699
 3146SOL    HW112074   4.523   2.528   3.671
 3146SOL    HW212075   4.396   2.531   3.754
 3146SOL     MW12076   4.455   2.573   3.703
 3147SOL     OW12077   4.254   2.453   2.032
 3147SOL    HW112078   4.220   2.509   2.102
 3147SOL    HW212079   4.325   2.403   2.072
 3147SOL     MW12080   4.260   2.454   2.046
 3148SOL     OW12081   4.779   2.852   3.223
 3148SOL    HW112082   4.822   2.887   3.301
 3148SOL    HW212083   4.762   2.929   3.169
 3148SOL     MW12084   4.782   2.867   3.226
 3149SOL     OW12085   4.170   1.994   2.525
 3149SOL    HW112086   4.220   2.037   2.456
 3149SOL    HW212087   4.085   2.038   2.525
 3149SOL     MW12088   4.167   2.007   2.516
 3150SOL     OW12089   4.979   2.601   2.071
 3150SOL    HW112090   5.026   2.619   1.990
 3150SOL    HW212091   4.945   2.685   2.099
 3150SOL     MW12092   4.981   2.615   2.064
 3151SOL     OW12093   4.714   3.343   1.893
 3151SOL    HW112094   4.741   3.421   1.845
 3151SOL    HW212095   4.621   3.358   1.912
 3151SOL     MW12096   4.705   3.356   1.889
 3152SOL     OW12097   3.799   3.379   2.737
 3152SOL    HW112098   3.831   3.383   2.828
 3152SOL    HW212099   3.704   3.387   2.745
 3152SOL     MW12100   3.791   3.382   2.750
 3153SOL     OW12101   4.277   1.989   2.800
 3153SOL    HW112102   4.287   1.898   2.826
 3153SOL    HW212103   4.233   1.985   2.715
 3153SOL     MW12104   4.273   1.977   2.792
 3154SOL     OW12105   4.988   2.893   2.859
 3154SOL    HW112106   5.002   2.865   2.950
 3154SOL    HW212107   5.074   2.924   2.831
 3154SOL     MW12108   5.001   2.894   2.868
 3155SOL     OW12109   4.482   2.121   2.912
 3155SOL    HW112110   4.455   2.123   3.003
 3155SOL    HW212111   4.412   2.073   2.867
 3155SOL     MW12112   4.470   2.117   2.919
 3156SOL     OW12113   4.336   3.613   3.074
 3156SOL    HW112114   4.388   3.690   3.051
 3156SOL    HW212115   4.345   3.605   3.169
 3156SOL     MW12116   4.345   3.620   3.085
 3157SOL     OW12117   4.312   2.929   3.423
 3157SOL    HW112118   4.349   2.934   3.335
 3157SOL    HW212119   4.351   3.002   3.470
 3157SOL     MW12120   4.322   2.939   3.418
 3158SOL     OW12121   4.492   2.972   3.235
 3158SOL    HW112122   4.551   2.918   3.288
 3158SOL    HW212123   4.507   2.944   3.145
 3158SOL     MW12124   4.502   2.961   3.231
 3159SOL     OW12125   4.495   2.344   2.084
 3159SOL    HW112126   4.568   2.393   2.047
 3159SOL    HW212127   4.511   2.253   2.058
 3159SOL     MW12128   4.507   2.339   2.077
 3160SOL     OW12129   3.970   2.853   2.182
 3160SOL    HW112130   3.907   2.869   2.111
 3160SOL    HW212131   3.917   2.816   2.253
 3160SOL     MW12132   3.955   2.850   2.182
 3161SOL     OW12133   4.326   3.207   2.041
 3161SOL    HW112134   4.341   3.183   2.133
 3161SOL    HW212135   4.234   3.185   2.025
 3161SOL     MW12136   4.316   3.200   2.051
 3162SOL     OW12137   4.865   3.438   2.193
 3162SOL    HW112138   4.873   3.356   2.144
 3162SOL    HW212139   4.784   3.477   2.160
 3162SOL     MW12140   4.855   3.433   2.183
 3163SOL     OW12141   4.124   3.596   2.762
 3163SOL    HW112142   4.128   3.507   2.797
 3163SOL    HW212143   4.150   3.587   2.671
 3163SOL     MW12144   4.127   3.584   2.754
 3164SOL     OW12145   4.741   3.074   3.005
 3164SOL    HW112146   4.673   3.008   3.021
 3164SOL    HW212147   4.759   3.068   2.912
 3164SOL     MW12148   4.734   3.065   2.996
 3165SOL     OW12149   4.106   3.164   3.704
 3165SOL    HW112150   4.178   3.166   3.641
 3165SOL    HW212151   4.076   3.073   3.703
 3165SOL     MW12152   4.111   3.153   3.696
 3166SOL     OW12153   4.201   2.319   2.639
 3166SOL    HW112154   4.272   2.267   2.602
 3166SOL    HW212155   4.187   2.284   2.726
 3166SOL     MW12156   4.209   2.308   2.646
 3167SOL     OW12157   3.756   3.654   3.711
 3167SOL    HW112158   3.806   3.632   3.633
 3167SOL    HW212159   3.764   3.749   3.719
 3167SOL     MW12160   3.764   3.663   3.702
 3168SOL     OW12161   4.517   3.412   2.715
 3168SOL    HW112162   4.445   3.349   2.728
 3168SOL    HW212163   4.478   3.497   2.733
 3168SOL     MW12164   4.501   3.415   2.718
 3169SOL     OW12165   4.837   2.260   2.363
 3169SOL    HW112166   4.859   2.197   2.295
 3169SOL    HW212167   4.742   2.252   2.374
 3169SOL     MW12168   4.827   2.251   2.355
 3170SOL     OW12169   3.922   1.950   2.295
 3170SOL    HW112170   3.993   1.971   2.234
 3170SOL    HW212171   3.876   1.878   2.253
 3170SOL     MW12172   3.926   1.944   2.281
 3171SOL     OW12173   3.753   2.417   3.438
 3171SOL    HW112174   3.817   2.483   3.413
 3171SOL    HW212175   3.672   2.444   3.395
 3171SOL     MW12176   3.751   2.429   3.430
 3172SOL     OW12177   5.047   3.001   2.325
 3172SOL    HW112178   5.019   3.087   2.358
 3172SOL    HW212179   5.075   3.017   2.235
 3172SOL     MW12180   5.047   3.015   2.317
 3173SOL     OW12181   4.709   1.921   2.378
 3173SOL    HW112182   4.746   1.980   2.443
 3173SOL    HW212183   4.686   1.977   2.304
 3173SOL     MW12184   4.710   1.936   2.377
 3174SOL     OW12185   3.938   2.643   3.379
 3174SOL    HW112186   3.959   2.712   3.317
 3174SOL    HW212187   4.018   2.590   3.384
 3174SOL     MW12188   3.951   2.644   3.373
 3175SOL     OW12189   3.923   2.658   3.646
 3175SOL    HW112190   3.849   2.602   3.672
 3175SOL    HW212191   3.918   2.661   3.551
 3175SOL     MW12192   3.912   2.651   3.636
 3176SOL     OW12193   4.089   1.945   3.096
 3176SOL    HW112194   4.132   2.029   3.116
 3176SOL    HW212195   4.162   1.883   3.089
 3176SOL     MW12196   4.104   1.948   3.097
 3177SOL     OW12197   4.130   2.612   2.274
 3177SOL    HW112198   4.130   2.707   2.259
 3177SOL    HW212199   4.207   2.596   2.328
 3177SOL     MW12200   4.140   2.623   2.279
 3178SOL     OW12201   3.889   2.343   2.563
 3178SOL    HW112202   3.951   2.350   2.636
 3178SOL    HW212203   3.889   2.250   2.540
 3178SOL     MW12204   3.897   2.332   2.570
 3179SOL     OW12205   4.571   2.604   3.047
 3179SOL    HW112206   4.529   2.522   3.023
 3179SOL    HW212207   4.572   2.603   3.143
 3179SOL     MW12208   4.564   2.593   3.056
 3180SOL     OW12209   3.758   2.915   2.021
 3180SOL    HW112210   3.727   2.980   2.084
 3180SOL    HW212211   3.707   2.837   2.040
 3180SOL     MW12212   3.748   2.912   2.031
 3181SOL     OW12213   4.342   3.715   1.963
 3181SOL    HW112214   4.247   3.715   1.955
 3181SOL    HW212215   4.358   3.661   2.041
 3181SOL     MW12216   4.332   3.709   1.972
 3182SOL     OW12217   4.070   2.892   3.558
 3182SOL    HW112218   4.024   2.808   3.560
 3182SOL    HW212219   4.127   2.886   3.482
 3182SOL     MW12220   4.072   2.880   3.550
 3183SOL     OW12221   4.321   3.267   2.559
 3183SOL    HW112222   4.386   3.200   2.580
 3183SOL    HW212223   4.373   3.344   2.536
 3183SOL     MW12224   4.336   3.269   2.558
 3184SOL     OW12225   4.582   2.432   2.689
 3184SOL    HW112226   4.522   2.450   2.761
 3184SOL    HW212227   4.616   2.344   2.708
 3184SOL     MW12228   4.578   2.422   2.702
 3185SOL     OW12229   4.807   3.015   2.708
 3185SOL    HW112230   4.899   2.996   2.726
 3185SOL    HW212231   4.780   2.945   2.648
 3185SOL     MW12232   4.815   3.003   2.702
 3186SOL     OW12233   5.000   3.201   3.072
 3186SOL    HW112234   5.011   3.168   3.161
 3186SOL    HW212235   4.919   3.160   3.041
 3186SOL     MW12236   4.990   3.193   3.078
 3187SOL     OW12237   4.013   2.559   2.842
 3187SOL    HW112238   3.963   2.558   2.923
 3187SOL    HW212239   4.033   2.651   2.826
 3187SOL     MW12240   4.009   2.571   2.850
 3188SOL     OW12241   4.608   2.604   2.279
 3188SOL    HW112242   4.588   2.590   2.186
 3188SOL    HW212243   4.701   2.583   2.286
 3188SOL     MW12244   4.618   2.599   2.268
 3189SOL     OW12245   3.935   2.227   3.583
 3189SOL    HW112246   3.892   2.286   3.520
 3189SOL    HW212247   4.003   2.282   3.623
 3189SOL     MW12248   3.939   2.242   3.580
 3190SOL     OW12249   5.047   2.847   3.128
 3190SOL    HW112250   5.110   2.844   3.201
 3190SOL    HW212251   4.963   2.865   3.170
 3190SOL     MW12252   5.043   2.849   3.143
 3191SOL     OW12253   4.591   3.562   2.317
 3191SOL    HW112254   4.649   3.633   2.344
 3191SOL    HW212255   4.614   3.490   2.375
 3191SOL     MW12256   4.602   3.562   2.328
 3192SOL     OW12257   3.834   1.867   3.006
 3192SOL    HW112258   3.825   1.868   2.911
 3192SOL    HW212259   3.928   1.879   3.021
 3192SOL     MW12260   3.846   1.870   2.997
 3193SOL     OW12261   4.047   1.994   2.052
 3193SOL    HW112262   3.976   2.049   2.020
 3193SOL    HW212263   4.089   1.960   1.973
 3193SOL     MW12264   4.043   1.996   2.038
 3194SOL     OW12265   3.803   2.093   1.901
 3194SOL    HW112266   3.770   2.172   1.945
 3194SOL    HW212267   3.858   2.126   1.830
 3194SOL     MW12268   3.806   2.107   1.898
 3195SOL     OW12269   3.837   3.350   2.090
 3195SOL    HW112270   3.854   3.434   2.132
 3195SOL    HW212271   3.872   3.359   2.002
 3195SOL     MW12272   3.842   3.363   2.084
 3196SOL     OW12273   4.266   2.890   4.222
 3196SOL    HW112274   4.356   2.865   4.206
 3196SOL    HW212275   4.262   2.983   4.199
 3196SOL     MW12276   4.278   2.899   4.217
 3197SOL     OW12277   4.550   2.346   4.235
 3197SOL    HW112278   4.525   2.434   4.263
 3197SOL    HW212279   4.547   2.349   4.139
 3197SOL     MW12280   4.546   2.358   4.227
 3198SOL     OW12281   3.992   2.374   4.163
 3198SOL    HW112282   4.024   2.462   4.145
 3198SOL    HW212283   3.980   2.372   4.258
 3198SOL     MW12284   3.995   2.386   4.175
 3199SOL     OW12285   4.391   2.129   4.250
 3199SOL    HW112286   4.449   2.205   4.252
 3199SOL    HW212287   4.326   2.150   4.183
 3199SOL     MW12288   4.390   2.141   4.241
 3200SOL     OW12289   4.478   3.056   4.425
 3200SOL    HW112290   4.558   3.059   4.477
 3200SOL    HW212291   4.506   3.023   4.339
 3200SOL     MW12292   4.492   3.052   4.420
 3201SOL     OW12293   4.503   3.397   5.328
 3201SOL    HW112294   4.587   3.423   5.367
 3201SOL    HW212295   4.527   3.341   5.254
 3201SOL     MW12296   4.517   3.393   5.323
 3202SOL     OW12297   4.255   2.560   4.416
 3202SOL    HW112298   4.240   2.480   4.467
 3202SOL    HW212299   4.337   2.595   4.450
 3202SOL     MW12300   4.263   2.552   4.428
 3203SOL     OW12301   4.397   2.386   4.793
 3203SOL    HW112302   4.303   2.382   4.811
 3203SOL    HW212303   4.427   2.295   4.802
 3203SOL     MW12304   4.388   2.374   4.796
 3204SOL     OW12305   4.143   2.800   4.697
 3204SOL    HW112306   4.098   2.807   4.613
 3204SOL    HW212307   4.123   2.883   4.741
 3204SOL     MW12308   4.135   2.812   4.691
 3205SOL     OW12309   3.840   3.646   4.572
 3205SOL    HW112310   3.929   3.638   4.607
 3205SOL    HW212311   3.804   3.558   4.577
 3205SOL     MW12312   3.847   3.633   4.577
 3206SOL     OW12313   4.666   2.817   4.417
 3206SOL    HW112314   4.580   2.804   4.457
 3206SOL    HW212315   4.719   2.744   4.449
 3206SOL     MW12316   4.662   2.806   4.426
 3207SOL     OW12317   4.074   3.469   5.202
 3207SOL    HW112318   3.982   3.445   5.187
 3207SOL    HW212319   4.118   3.386   5.219
 3207SOL     MW12320   4.068   3.454   5.201
 3208SOL     OW12321   4.657   3.179   4.134
 3208SOL    HW112322   4.634   3.241   4.202
 3208SOL    HW212323   4.614   3.097   4.160
 3208SOL     MW12324   4.649   3.175   4.145
 3209SOL     OW12325   4.154   2.152   4.102
 3209SOL    HW112326   4.128   2.114   4.018
 3209SOL    HW212327   4.091   2.222   4.118
 3209SOL     MW12328   4.143   2.155   4.093
 3210SOL     OW12329   4.651   3.576   3.917
 3210SOL    HW112330   4.606   3.592   4.000
 3210SOL    HW212331   4.582   3.541   3.859
 3210SOL     MW12332   4.637   3.573   3.919
 3211SOL     OW12333   3.872   3.467   4.866
 3211SOL    HW112334   3.855   3.413   4.943
 3211SOL    HW212335   3.860   3.557   4.896
 3211SOL     MW12336   3.869   3.471   4.880
 3212SOL     OW12337   4.179   3.569   4.372
 3212SOL    HW112338   4.211   3.657   4.350
 3212SOL    HW212339   4.132   3.541   4.294
 3212SOL     MW12340   4.178   3.577   4.359
 3213SOL     OW12341   4.682   1.884   4.834
 3213SOL    HW112342   4.641   1.962   4.796
 3213SOL    HW212343   4.776   1.902   4.829
 3213SOL     MW12344   4.688   1.896   4.829
 3214SOL     OW12345   4.697   2.562   3.864
 3214SOL    HW112346   4.699   2.509   3.785
 3214SOL    HW212347   4.785   2.599   3.870
 3214SOL     MW12348   4.709   2.561   3.853
 3215SOL     OW12349   3.924   2.088   4.395
 3215SOL    HW112350   3.915   2.028   4.321
 3215SOL    HW212351   3.857   2.059   4.458
 3215SOL     MW12352   3.914   2.075   4.393
 3216SOL     OW12353   3.871   2.261   4.758
 3216SOL    HW112354   3.843   2.352   4.767
 3216SOL    HW212355   3.808   2.222   4.697
 3216SOL     MW12356   3.858   2.267   4.752
 3217SOL     OW12357   4.466   3.014   3.771
 3217SOL    HW112358   4.388   2.960   3.758
 3217SOL    HW212359   4.437   3.087   3.824
 3217SOL     MW12360   4.452   3.016   3.776
 3218SOL     OW12361   3.855   2.536   4.928
 3218SOL    HW112362   3.917   2.566   4.994
 3218SOL    HW212363   3.789   2.605   4.922
 3218SOL     MW12364   3.854   2.549   4.935
 3219SOL     OW12365   4.496   2.093   3.836
 3219SOL    HW112366   4.444   2.013   3.824
 3219SOL    HW212367   4.583   2.070   3.804
 3219SOL     MW12368   4.499   2.079   3.830
 3220SOL     OW12369   4.002   2.964   4.887
 3220SOL    HW112370   4.055   3.039   4.912
 3220SOL    HW212371   3.921   3.002   4.853
 3220SOL     MW12372   3.998   2.979   4.887
 3221SOL     OW12373   3.857   2.733   4.293
 3221SOL    HW112374   3.948   2.748   4.320
 3221SOL    HW212375   3.860   2.654   4.239
 3221SOL     MW12376   3.869   2.725   4.291
 3222SOL     OW12377   4.479   1.991   5.254
 3222SOL    HW112378   4.456   1.899   5.256
 3222SOL    HW212379   4.565   1.993   5.211
 3222SOL     MW12380   4.486   1.981   5.250
 3223SOL     OW12381   4.484   3.665   4.667
 3223SOL    HW112382   4.573   3.680   4.697
 3223SOL    HW212383   4.479   3.712   4.583
 3223SOL     MW12384   4.494   3.673   4.660
 3224SOL     OW12385   4.698   3.388   4.367
 3224SOL    HW112386   4.781   3.342   4.351
 3224SOL    HW212387   4.688   3.387   4.463
 3224SOL     MW12388   4.708   3.381   4.377
 3225SOL     OW12389   4.936   2.612   4.703
 3225SOL    HW112390   4.949   2.706   4.713
 3225SOL    HW212391   4.897   2.602   4.617
 3225SOL     MW12392   4.932   2.623   4.693
 3226SOL     OW12393   4.806   2.594   4.459
 3226SOL    HW112394   4.743   2.526   4.483
 3226SOL    HW212395   4.826   2.575   4.367
 3226SOL     MW12396   4.800   2.581   4.451
 3227SOL     OW12397   4.554   2.898   4.185
 3227SOL    HW112398   4.556   2.872   4.092
 3227SOL    HW212399   4.612   2.835   4.228
 3227SOL     MW12400   4.562   2.887   4.179
 3228SOL     OW12401   5.111   3.666   4.387
 3228SOL    HW112402   5.054   3.619   4.326
 3228SOL    HW212403   5.197   3.627   4.374
 3228SOL     MW12404   5.114   3.657   4.377
 3229SOL     OW12405   3.869   3.076   4.452
 3229SOL    HW112406   3.933   3.108   4.515
 3229SOL    HW212407   3.918   3.012   4.400
 3229SOL     MW12408   3.884   3.072   4.453
 3230SOL     OW12409   4.147   3.389   4.824
 3230SOL    HW112410   4.192   3.451   4.881
 3230SOL    HW212411   4.054   3.408   4.837
 3230SOL     MW12412   4.140   3.399   4.831
 3231SOL     OW12413   4.211   2.840   3.787
 3231SOL    HW112414   4.134   2.853   3.843
 3231SOL    HW212415   4.175   2.804   3.706
 3231SOL     MW12416   4.197   2.836   3.784
 3232SOL     OW12417   4.864   2.813   4.030
 3232SOL    HW112418   4.774   2.834   4.005
 3232SOL    HW212419   4.891   2.886   4.086
 3232SOL     MW12420   4.856   2.825   4.033
 3233SOL     OW12421   4.493   1.929   4.437
 3233SOL    HW112422   4.422   1.990   4.419
 3233SOL    HW212423   4.544   1.926   4.356
 3233SOL     MW12424   4.489   1.935   4.424
 3234SOL     OW12425   4.846   3.562   5.095
 3234SOL    HW112426   4.766   3.547   5.045
 3234SOL    HW212427   4.853   3.657   5.102
 3234SOL     MW12428   4.837   3.573   5.089
 3235SOL     OW12429   4.170   1.994   4.393
 3235SOL    HW112430   4.220   2.037   4.324
 3235SOL    HW212431   4.085   2.038   4.393
 3235SOL     MW12432   4.167   2.007   4.384
 3236SOL     OW12433   4.979   2.601   3.939
 3236SOL    HW112434   5.026   2.619   3.858
 3236SOL    HW212435   4.945   2.685   3.967
 3236SOL     MW12436   4.981   2.615   3.932
 3237SOL     OW12437   4.092   2.779   4.433
 3237SOL    HW112438   4.150   2.835   4.381
 3237SOL    HW212439   4.136   2.694   4.435
 3237SOL     MW12440   4.105   2.776   4.426
 3238SOL     OW12441   4.818   2.093   4.429
 3238SOL    HW112442   4.838   2.168   4.373
 3238SOL    HW212443   4.798   2.132   4.514
 3238SOL     MW12444   4.819   2.109   4.433
 3239SOL     OW12445   4.714   3.343   3.761
 3239SOL    HW112446   4.741   3.421   3.713
 3239SOL    HW212447   4.621   3.358   3.780
 3239SOL     MW12448   4.705   3.356   3.757
 3240SOL     OW12449   3.799   3.379   4.605
 3240SOL    HW112450   3.831   3.383   4.696
 3240SOL    HW212451   3.704   3.387   4.613
 3240SOL     MW12452   3.791   3.382   4.618
 3241SOL     OW12453   3.754   2.505   4.152
 3241SOL    HW112454   3.694   2.477   4.222
 3241SOL    HW212455   3.828   2.445   4.158
 3241SOL     MW12456   3.756   2.494   4.161
 3242SOL     OW12457   4.180   2.244   5.041
 3242SOL    HW112458   4.213   2.325   5.081
 3242SOL    HW212459   4.153   2.270   4.953
 3242SOL     MW12460   4.179   2.258   5.035
 3243SOL     OW12461   4.134   2.211   4.777
 3243SOL    HW112462   4.164   2.125   4.748
 3243SOL    HW212463   4.039   2.204   4.780
 3243SOL     MW12464   4.126   2.200   4.775
 3244SOL     OW12465   4.277   1.989   4.668
 3244SOL    HW112466   4.287   1.898   4.694
 3244SOL    HW212467   4.233   1.985   4.583
 3244SOL     MW12468   4.273   1.977   4.660
 3245SOL     OW12469   4.988   2.893   4.727
 3245SOL    HW112470   5.002   2.865   4.818
 3245SOL    HW212471   5.074   2.924   4.699
 3245SOL     MW12472   5.001   2.894   4.736
 3246SOL     OW12473   4.482   2.121   4.780
 3246SOL    HW112474   4.455   2.123   4.871
 3246SOL    HW212475   4.412   2.073   4.735
 3246SOL     MW12476   4.470   2.117   4.787
 3247SOL     OW12477   3.970   2.853   4.050
 3247SOL    HW112478   3.907   2.869   3.979
 3247SOL    HW212479   3.917   2.816   4.121
 3247SOL     MW12480   3.955   2.850   4.050
 3248SOL     OW12481   4.326   3.207   3.909
 3248SOL    HW112482   4.341   3.183   4.001
 3248SOL    HW212483   4.234   3.185   3.893
 3248SOL     MW12484   4.316   3.200   3.919
 3249SOL     OW12485   4.865   3.438   4.061
 3249SOL    HW112486   4.873   3.356   4.012
 3249SOL    HW212487   4.784   3.477   4.028
 3249SOL     MW12488   4.855   3.433   4.051
 3250SOL     OW12489   4.124   3.596   4.630
 3250SOL    HW112490   4.128   3.507   4.665
 3250SOL    HW212491   4.150   3.587   4.539
 3250SOL     MW12492   4.127   3.584   4.622
 3251SOL     OW12493   4.741   3.074   4.873
 3251SOL    HW112494   4.673   3.008   4.889
 3251SOL    HW212495   4.759   3.068   4.780
 3251SOL     MW12496   4.734   3.065   4.864
 3252SOL     OW12497   4.734   2.213   4.694
 3252SOL    HW112498   4.664   2.165   4.739
 3252SOL    HW212499   4.766   2.276   4.758
 3252SOL     MW12500   4.729   2.215   4.708
 3253SOL     OW12501   4.201   2.319   4.507
 3253SOL    HW112502   4.272   2.267   4.470
 3253SOL    HW212503   4.187   2.284   4.594
 3253SOL     MW12504   4.209   2.308   4.514
 3254SOL     OW12505   4.517   3.412   4.583
 3254SOL    HW112506   4.445   3.349   4.596
 3254SOL    HW212507   4.478   3.497   4.601
 3254SOL     MW12508   4.501   3.415   4.586
 3255SOL     OW12509   4.837   2.260   4.231
 3255SOL    HW112510   4.859   2.197   4.163
 3255SOL    HW212511   4.742   2.252   4.242
 3255SOL     MW12512   4.827   2.251   4.223
 3256SOL     OW12513   4.709   1.921   4.246
 3256SOL    HW112514   4.746   1.980   4.311
 3256SOL    HW212515   4.686   1.977   4.172
 3256SOL     MW12516   4.710   1.936   4.245
 3257SOL     OW12517   3.938   2.643   5.247
 3257SOL    HW112518   3.959   2.712   5.185
 3257SOL    HW212519   4.018   2.590   5.252
 3257SOL     MW12520   3.951   2.644   5.241
 3258SOL     OW12521   4.130   2.612   4.142
 3258SOL    HW112522   4.130   2.707   4.127
 3258SOL    HW212523   4.207   2.596   4.196
 3258SOL     MW12524   4.140   2.623   4.147
 3259SOL     OW12525   3.889   2.343   4.431
 3259SOL    HW112526   3.951   2.350   4.504
 3259SOL    HW212527   3.889   2.250   4.408
 3259SOL     MW12528   3.897   2.332   4.438
 3260SOL     OW12529   4.807   3.015   4.576
 3260SOL    HW112530   4.899   2.996   4.594
 3260SOL    HW212531   4.780   2.945   4.516
 3260SOL     MW12532   4.815   3.003   4.570
 3261SOL     OW12533   4.600   2.835   3.931
 3261SOL    HW112534   4.586   2.747   3.896
 3261SOL    HW212535   4.551   2.892   3.872
 3261SOL     MW12536   4.592   2.830   3.919
 3262SOL     OW12537   5.000   3.201   4.940
 3262SOL    HW112538   5.011   3.168   5.029
 3262SOL    HW212539   4.919   3.160   4.909
 3262SOL     MW12540   4.990   3.193   4.946
 3263SOL     OW12541   4.013   2.559   4.710
 3263SOL    HW112542   3.963   2.558   4.791
 3263SOL    HW212543   4.033   2.651   4.694
 3263SOL     MW12544   4.009   2.571   4.718
 3264SOL     OW12545   4.608   2.604   4.147
 3264SOL    HW112546   4.588   2.590   4.054
 3264SOL    HW212547   4.701   2.583   4.154
 3264SOL     MW12548   4.618   2.599   4.136
 3265SOL     OW12549   4.047   1.994   3.920
 3265SOL    HW112550   3.976   2.049   3.888
 3265SOL    HW212551   4.089   1.960   3.841
 3265SOL     MW12552   4.043   1.996   3.906
 3266SOL     OW12553   3.803   2.093   3.769
 3266SOL    HW112554   3.770   2.172   3.813
 3266SOL    HW212555   3.858   2.126   3.698
 3266SOL     MW12556   3.806   2.107   3.766
 3267SOL     OW12557   3.837   3.350   3.958
 3267SOL    HW112558   3.854   3.434   4.000
 3267SOL    HW212559   3.872   3.359   3.870
 3267SOL     MW12560   3.842   3.363   3.952
 3268SOL     OW12561   4.266   4.758   0.486
 3268SOL    HW112562   4.356   4.733   0.470
 3268SOL    HW212563   4.262   4.851   0.463
 3268SOL     MW12564   4.278   4.767   0.481
 3269SOL     OW12565   4.070   4.655   1.328
 3269SOL    HW112566   4.133   4.602   1.279
 3269SOL    HW212567   4.051   4.729   1.271
 3269SOL     MW12568   4.076   4.657   1.315
 3270SOL     OW12569   4.255   4.428   0.680
 3270SOL    HW112570   4.240   4.348   0.731
 3270SOL    HW212571   4.337   4.463   0.714
 3270SOL     MW12572   4.263   4.420   0.692
 3271SOL     OW12573   4.143   4.668   0.961
 3271SOL    HW112574   4.098   4.675   0.877
 3271SOL    HW212575   4.123   4.751   1.005
 3271SOL     MW12576   4.135   4.680   0.955
 3272SOL     OW12577   4.666   4.685   0.681
 3272SOL    HW112578   4.580   4.672   0.721
 3272SOL    HW212579   4.719   4.612   0.713
 3272SOL     MW12580   4.662   4.674   0.690
 3273SOL     OW12581   4.867   4.842   1.570
 3273SOL    HW112582   4.852   4.935   1.555
 3273SOL    HW212583   4.962   4.832   1.570
 3273SOL     MW12584   4.876   4.852   1.567
 3274SOL     OW12585   4.663   4.266   1.771
 3274SOL    HW112586   4.753   4.267   1.738
 3274SOL    HW212587   4.622   4.191   1.729
 3274SOL     MW12588   4.669   4.256   1.762
 3275SOL     OW12589   5.238   4.798   0.898
 3275SOL    HW112590   5.241   4.732   0.829
 3275SOL    HW212591   5.323   4.841   0.894
 3275SOL     MW12592   5.250   4.794   0.889
 3276SOL     OW12593   4.443   4.070   1.721
 3276SOL    HW112594   4.453   3.996   1.661
 3276SOL    HW212595   4.479   4.039   1.804
 3276SOL     MW12596   4.449   4.056   1.723
 3277SOL     OW12597   4.682   3.752   1.098
 3277SOL    HW112598   4.641   3.830   1.060
 3277SOL    HW212599   4.776   3.770   1.093
 3277SOL     MW12600   4.688   3.764   1.093
 3278SOL     OW12601   4.628   4.723   1.593
 3278SOL    HW112602   4.605   4.703   1.683
 3278SOL    HW212603   4.713   4.767   1.598
 3278SOL     MW12604   4.635   4.726   1.605
 3279SOL     OW12605   4.708   3.860   1.353
 3279SOL    HW112606   4.714   3.822   1.266
 3279SOL    HW212607   4.697   3.954   1.338
 3279SOL     MW12608   4.709   3.868   1.341
 3280SOL     OW12609   4.794   4.055   1.570
 3280SOL    HW112610   4.760   4.094   1.489
 3280SOL    HW212611   4.772   3.963   1.563
 3280SOL     MW12612   4.787   4.048   1.560
 3281SOL     OW12613   3.924   3.956   0.659
 3281SOL    HW112614   3.915   3.896   0.585
 3281SOL    HW212615   3.857   3.927   0.722
 3281SOL     MW12616   3.914   3.943   0.657
 3282SOL     OW12617   3.871   4.129   1.022
 3282SOL    HW112618   3.843   4.220   1.031
 3282SOL    HW212619   3.808   4.090   0.961
 3282SOL     MW12620   3.858   4.135   1.016
 3283SOL     OW12621   4.466   4.882   0.035
 3283SOL    HW112622   4.388   4.828   0.022
 3283SOL    HW212623   4.437   4.955   0.088
 3283SOL     MW12624   4.452   4.884   0.040
 3284SOL     OW12625   3.855   4.404   1.192
 3284SOL    HW112626   3.917   4.434   1.258
 3284SOL    HW212627   3.789   4.473   1.186
 3284SOL     MW12628   3.854   4.417   1.199
 3285SOL     OW12629   4.496   3.961   0.100
 3285SOL    HW112630   4.444   3.881   0.088
 3285SOL    HW212631   4.583   3.938   0.068
 3285SOL     MW12632   4.499   3.947   0.094
 3286SOL     OW12633   4.542   4.736   1.139
 3286SOL    HW112634   4.570   4.645   1.151
 3286SOL    HW212635   4.471   4.730   1.075
 3286SOL     MW12636   4.535   4.724   1.134
 3287SOL     OW12637   3.857   4.601   0.557
 3287SOL    HW112638   3.948   4.616   0.584
 3287SOL    HW212639   3.860   4.522   0.503
 3287SOL     MW12640   3.869   4.593   0.555
 3288SOL     OW12641   4.093   4.309   1.811
 3288SOL    HW112642   4.040   4.389   1.818
 3288SOL    HW212643   4.163   4.321   1.876
 3288SOL     MW12644   4.095   4.322   1.819
 3289SOL     OW12645   4.479   3.859   1.518
 3289SOL    HW112646   4.456   3.767   1.520
 3289SOL    HW212647   4.565   3.861   1.475
 3289SOL     MW12648   4.486   3.849   1.514
 3290SOL     OW12649   4.869   3.958   0.259
 3290SOL    HW112650   4.802   3.934   0.196
 3290SOL    HW212651   4.934   4.007   0.208
 3290SOL     MW12652   4.869   3.960   0.244
 3291SOL     OW12653   4.806   4.462   0.723
 3291SOL    HW112654   4.743   4.394   0.747
 3291SOL    HW212655   4.826   4.443   0.631
 3291SOL     MW12656   4.800   4.449   0.715
 3292SOL     OW12657   4.554   4.766   0.449
 3292SOL    HW112658   4.556   4.740   0.356
 3292SOL    HW212659   4.612   4.703   0.492
 3292SOL     MW12660   4.562   4.755   0.443
 3293SOL     OW12661   4.369   5.020   1.698
 3293SOL    HW112662   4.417   5.103   1.685
 3293SOL    HW212663   4.426   4.968   1.754
 3293SOL     MW12664   4.383   5.024   1.704
 3294SOL     OW12665   4.712   3.819   0.054
 3294SOL    HW112666   4.768   3.811  -0.024
 3294SOL    HW212667   4.689   3.729   0.076
 3294SOL     MW12668   4.717   3.806   0.047
 3295SOL     OW12669   4.123   3.767   1.789
 3295SOL    HW112670   4.051   3.732   1.737
 3295SOL    HW212671   4.181   3.808   1.724
 3295SOL     MW12672   4.121   3.768   1.774
 3296SOL     OW12673   4.211   4.708   0.051
 3296SOL    HW112674   4.134   4.721   0.107
 3296SOL    HW212675   4.175   4.672  -0.030
 3296SOL     MW12676   4.197   4.704   0.048
 3297SOL     OW12677   4.864   4.681   0.294
 3297SOL    HW112678   4.774   4.702   0.269
 3297SOL    HW212679   4.891   4.754   0.350
 3297SOL     MW12680   4.856   4.693   0.297
 3298SOL     OW12681   5.228   4.040   1.388
 3298SOL    HW112682   5.175   4.042   1.468
 3298SOL    HW212683   5.213   3.953   1.351
 3298SOL     MW12684   5.220   4.030   1.393
 3299SOL     OW12685   4.493   3.797   0.701
 3299SOL    HW112686   4.422   3.858   0.683
 3299SOL    HW212687   4.544   3.794   0.620
 3299SOL     MW12688   4.489   3.803   0.688
 3300SOL     OW12689   4.453   4.454   1.831
 3300SOL    HW112690   4.523   4.396   1.803
 3300SOL    HW212691   4.396   4.399   1.886
 3300SOL     MW12692   4.455   4.441   1.835
 3301SOL     OW12693   5.350   5.072   0.986
 3301SOL    HW112694   5.385   5.054   0.899
 3301SOL    HW212695   5.255   5.073   0.973
 3301SOL     MW12696   5.342   5.069   0.973
 3302SOL     OW12697   4.779   4.720   1.355
 3302SOL    HW112698   4.822   4.755   1.433
 3302SOL    HW212699   4.762   4.797   1.301
 3302SOL     MW12700   4.782   4.735   1.358
 3303SOL     OW12701   4.170   3.862   0.657
 3303SOL    HW112702   4.220   3.905   0.588
 3303SOL    HW212703   4.085   3.906   0.657
 3303SOL     MW12704   4.167   3.875   0.648
 3304SOL     OW12705   4.979   4.469   0.203
 3304SOL    HW112706   5.026   4.487   0.122
 3304SOL    HW212707   4.945   4.553   0.231
 3304SOL     MW12708   4.981   4.483   0.196
 3305SOL     OW12709   4.092   4.647   0.697
 3305SOL    HW112710   4.150   4.703   0.645
 3305SOL    HW212711   4.136   4.562   0.699
 3305SOL     MW12712   4.105   4.644   0.690
 3306SOL     OW12713   4.818   3.961   0.693
 3306SOL    HW112714   4.838   4.036   0.637
 3306SOL    HW212715   4.798   4.000   0.778
 3306SOL     MW12716   4.819   3.977   0.697
 3307SOL     OW12717   4.180   4.112   1.305
 3307SOL    HW112718   4.213   4.193   1.345
 3307SOL    HW212719   4.153   4.138   1.217
 3307SOL     MW12720   4.179   4.126   1.299
 3308SOL     OW12721   4.277   3.857   0.932
 3308SOL    HW112722   4.287   3.766   0.958
 3308SOL    HW212723   4.233   3.853   0.847
 3308SOL     MW12724   4.273   3.845   0.924
 3309SOL     OW12725   4.988   4.761   0.991
 3309SOL    HW112726   5.002   4.733   1.082
 3309SOL    HW212727   5.074   4.792   0.963
 3309SOL     MW12728   5.001   4.762   1.000
 3310SOL     OW12729   4.312   4.797   1.555
 3310SOL    HW112730   4.349   4.802   1.467
 3310SOL    HW212731   4.351   4.870   1.602
 3310SOL     MW12732   4.322   4.807   1.550
 3311SOL     OW12733   4.492   4.840   1.367
 3311SOL    HW112734   4.551   4.786   1.420
 3311SOL    HW212735   4.507   4.812   1.277
 3311SOL     MW12736   4.502   4.829   1.363
 3312SOL     OW12737   4.495   4.212   0.216
 3312SOL    HW112738   4.568   4.261   0.179
 3312SOL    HW212739   4.511   4.121   0.190
 3312SOL     MW12740   4.507   4.207   0.209
 3313SOL     OW12741   3.970   4.721   0.314
 3313SOL    HW112742   3.907   4.737   0.243
 3313SOL    HW212743   3.917   4.684   0.385
 3313SOL     MW12744   3.955   4.718   0.314
 3314SOL     OW12745   4.734   4.081   0.958
 3314SOL    HW112746   4.664   4.033   1.003
 3314SOL    HW212747   4.766   4.144   1.022
 3314SOL     MW12748   4.729   4.083   0.972
 3315SOL     OW12749   4.385   4.517   1.578
 3315SOL    HW112750   4.378   4.612   1.566
 3315SOL    HW212751   4.394   4.506   1.673
 3315SOL     MW12752   4.386   4.529   1.588
 3316SOL     OW12753   4.201   4.187   0.771
 3316SOL    HW112754   4.272   4.135   0.734
 3316SOL    HW212755   4.187   4.152   0.858
 3316SOL     MW12756   4.209   4.176   0.778
 3317SOL     OW12757   4.837   4.128   0.495
 3317SOL    HW112758   4.859   4.065   0.427
 3317SOL    HW212759   4.742   4.120   0.506
 3317SOL     MW12760   4.827   4.119   0.487
 3318SOL     OW12761   3.753   4.285   1.570
 3318SOL    HW112762   3.817   4.351   1.545
 3318SOL    HW212763   3.672   4.312   1.527
 3318SOL     MW12764   3.751   4.297   1.562
 3319SOL     OW12765   5.047   4.869   0.457
 3319SOL    HW112766   5.019   4.955   0.490
 3319SOL    HW212767   5.075   4.885   0.367
 3319SOL     MW12768   5.047   4.883   0.449
 3320SOL     OW12769   4.709   3.789   0.510
 3320SOL    HW112770   4.746   3.848   0.575
 3320SOL    HW212771   4.686   3.845   0.436
 3320SOL     MW12772   4.710   3.804   0.509
 3321SOL     OW12773   3.923   4.526   1.778
 3321SOL    HW112774   3.849   4.470   1.804
 3321SOL    HW212775   3.918   4.529   1.683
 3321SOL     MW12776   3.912   4.519   1.768
 3322SOL     OW12777   4.089   3.813   1.228
 3322SOL    HW112778   4.132   3.897   1.248
 3322SOL    HW212779   4.162   3.751   1.221
 3322SOL     MW12780   4.104   3.816   1.229
 3323SOL     OW12781   4.571   4.472   1.179
 3323SOL    HW112782   4.529   4.390   1.155
 3323SOL    HW212783   4.572   4.471   1.275
 3323SOL     MW12784   4.564   4.461   1.188
 3324SOL     OW12785   3.758   4.783   0.153
 3324SOL    HW112786   3.727   4.848   0.216
 3324SOL    HW212787   3.707   4.705   0.172
 3324SOL     MW12788   3.748   4.780   0.163
 3325SOL     OW12789   4.582   4.300   0.821
 3325SOL    HW112790   4.522   4.318   0.893
 3325SOL    HW212791   4.616   4.212   0.840
 3325SOL     MW12792   4.578   4.290   0.834
 3326SOL     OW12793   4.807   4.883   0.840
 3326SOL    HW112794   4.899   4.864   0.858
 3326SOL    HW212795   4.780   4.813   0.780
 3326SOL     MW12796   4.815   4.871   0.834
 3327SOL     OW12797   4.600   4.703   0.195
 3327SOL    HW112798   4.586   4.615   0.160
 3327SOL    HW212799   4.551   4.760   0.136
 3327SOL     MW12800   4.592   4.698   0.183
 3328SOL     OW12801   5.047   4.715   1.260
 3328SOL    HW112802   5.110   4.712   1.333
 3328SOL    HW212803   4.963   4.733   1.302
 3328SOL     MW12804   5.043   4.717   1.275
 3329SOL     OW12805   3.834   3.735   1.138
 3329SOL    HW112806   3.825   3.736   1.043
 3329SOL    HW212807   3.928   3.747   1.153
 3329SOL     MW12808   3.846   3.738   1.129
 3330SOL     OW12809   4.047   3.862   0.184
 3330SOL    HW112810   3.976   3.917   0.152
 3330SOL    HW212811   4.089   3.828   0.105
 3330SOL     MW12812   4.043   3.864   0.170
 3331SOL     OW12813   4.266   4.758   2.354
 3331SOL    HW112814   4.356   4.733   2.338
 3331SOL    HW212815   4.262   4.851   2.331
 3331SOL     MW12816   4.278   4.767   2.349
 3332SOL     OW12817   4.550   4.214   2.367
 3332SOL    HW112818   4.525   4.302   2.395
 3332SOL    HW212819   4.547   4.217   2.271
 3332SOL     MW12820   4.546   4.226   2.359
 3333SOL     OW12821   3.992   4.242   2.295
 3333SOL    HW112822   4.024   4.330   2.277
 3333SOL    HW212823   3.980   4.240   2.390
 3333SOL     MW12824   3.995   4.254   2.307
 3334SOL     OW12825   4.070   4.655   3.196
 3334SOL    HW112826   4.133   4.602   3.147
 3334SOL    HW212827   4.051   4.729   3.139
 3334SOL     MW12828   4.076   4.657   3.183
 3335SOL     OW12829   4.391   3.997   2.382
 3335SOL    HW112830   4.449   4.073   2.384
 3335SOL    HW212831   4.326   4.018   2.315
 3335SOL     MW12832   4.390   4.009   2.373
 3336SOL     OW12833   4.255   4.428   2.548
 3336SOL    HW112834   4.240   4.348   2.599
 3336SOL    HW212835   4.337   4.463   2.582
 3336SOL     MW12836   4.263   4.420   2.560
 3337SOL     OW12837   4.143   4.668   2.829
 3337SOL    HW112838   4.098   4.675   2.745
 3337SOL    HW212839   4.123   4.751   2.873
 3337SOL     MW12840   4.135   4.680   2.823
 3338SOL     OW12841   4.666   4.685   2.549
 3338SOL    HW112842   4.580   4.672   2.589
 3338SOL    HW212843   4.719   4.612   2.581
 3338SOL     MW12844   4.662   4.674   2.558
 3339SOL     OW12845   4.154   4.020   2.234
 3339SOL    HW112846   4.128   3.982   2.150
 3339SOL    HW212847   4.091   4.090   2.250
 3339SOL     MW12848   4.143   4.023   2.225
 3340SOL     OW12849   5.331   4.820   2.374
 3340SOL    HW112850   5.241   4.820   2.409
 3340SOL    HW212851   5.324   4.866   2.291
 3340SOL     MW12852   5.318   4.826   2.368
 3341SOL     OW12853   4.663   4.266   3.639
 3341SOL    HW112854   4.753   4.267   3.606
 3341SOL    HW212855   4.622   4.191   3.597
 3341SOL     MW12856   4.669   4.256   3.630
 3342SOL     OW12857   5.238   4.798   2.766
 3342SOL    HW112858   5.241   4.732   2.697
 3342SOL    HW212859   5.323   4.841   2.762
 3342SOL     MW12860   5.250   4.794   2.757
 3343SOL     OW12861   4.443   4.070   3.589
 3343SOL    HW112862   4.453   3.996   3.529
 3343SOL    HW212863   4.479   4.039   3.672
 3343SOL     MW12864   4.449   4.056   3.591
 3344SOL     OW12865   4.682   3.752   2.966
 3344SOL    HW112866   4.641   3.830   2.928
 3344SOL    HW212867   4.776   3.770   2.961
 3344SOL     MW12868   4.688   3.764   2.961
 3345SOL     OW12869   4.697   4.430   1.996
 3345SOL    HW112870   4.699   4.377   1.917
 3345SOL    HW212871   4.785   4.467   2.002
 3345SOL     MW12872   4.709   4.429   1.985
 3346SOL     OW12873   4.628   4.723   3.461
 3346SOL    HW112874   4.605   4.703   3.551
 3346SOL    HW212875   4.713   4.767   3.466
 3346SOL     MW12876   4.635   4.726   3.473
 3347SOL     OW12877   4.708   3.860   3.221
 3347SOL    HW112878   4.714   3.822   3.134
 3347SOL    HW212879   4.697   3.954   3.206
 3347SOL     MW12880   4.709   3.868   3.209
 3348SOL     OW12881   4.797   4.349   3.055
 3348SOL    HW112882   4.872   4.378   3.002
 3348SOL    HW212883   4.729   4.414   3.039
 3348SOL     MW12884   4.798   4.361   3.045
 3349SOL     OW12885   3.924   3.956   2.527
 3349SOL    HW112886   3.915   3.896   2.453
 3349SOL    HW212887   3.857   3.927   2.590
 3349SOL     MW12888   3.914   3.943   2.525
 3350SOL     OW12889   3.871   4.129   2.890
 3350SOL    HW112890   3.843   4.220   2.899
 3350SOL    HW212891   3.808   4.090   2.829
 3350SOL     MW12892   3.858   4.135   2.884
 3351SOL     OW12893   4.466   4.882   1.903
 3351SOL    HW112894   4.388   4.828   1.890
 3351SOL    HW212895   4.437   4.955   1.956
 3351SOL     MW12896   4.452   4.884   1.908
 3352SOL     OW12897   3.855   4.404   3.060
 3352SOL    HW112898   3.917   4.434   3.126
 3352SOL    HW212899   3.789   4.473   3.054
 3352SOL     MW12900   3.854   4.417   3.067
 3353SOL     OW12901   4.496   3.961   1.968
 3353SOL    HW112902   4.444   3.881   1.956
 3353SOL    HW212903   4.583   3.938   1.936
 3353SOL     MW12904   4.499   3.947   1.962
 3354SOL     OW12905   4.002   4.832   3.019
 3354SOL    HW112906   4.055   4.907   3.044
 3354SOL    HW212907   3.921   4.870   2.985
 3354SOL     MW12908   3.998   4.847   3.019
 3355SOL     OW12909   4.542   4.736   3.007
 3355SOL    HW112910   4.570   4.645   3.019
 3355SOL    HW212911   4.471   4.730   2.943
 3355SOL     MW12912   4.535   4.724   3.002
 3356SOL     OW12913   4.479   3.859   3.386
 3356SOL    HW112914   4.456   3.767   3.388
 3356SOL    HW212915   4.565   3.861   3.343
 3356SOL     MW12916   4.486   3.849   3.382
 3357SOL     OW12917   4.163   4.383   3.425
 3357SOL    HW112918   4.243   4.433   3.411
 3357SOL    HW212919   4.154   4.377   3.520
 3357SOL     MW12920   4.172   4.389   3.435
 3358SOL     OW12921   4.869   3.958   2.127
 3358SOL    HW112922   4.802   3.934   2.064
 3358SOL    HW212923   4.934   4.007   2.076
 3358SOL     MW12924   4.869   3.960   2.112
 3359SOL     OW12925   4.676   4.142   3.212
 3359SOL    HW112926   4.595   4.183   3.240
 3359SOL    HW212927   4.723   4.210   3.164
 3359SOL     MW12928   4.671   4.157   3.210
 3360SOL     OW12929   4.936   4.480   2.835
 3360SOL    HW112930   4.949   4.574   2.845
 3360SOL    HW212931   4.897   4.470   2.749
 3360SOL     MW12932   4.932   4.491   2.825
 3361SOL     OW12933   4.388   4.675   2.639
 3361SOL    HW112934   4.299   4.666   2.672
 3361SOL    HW212935   4.392   4.765   2.607
 3361SOL     MW12936   4.377   4.686   2.639
 3362SOL     OW12937   4.806   4.462   2.591
 3362SOL    HW112938   4.743   4.394   2.615
 3362SOL    HW212939   4.826   4.443   2.499
 3362SOL     MW12940   4.800   4.449   2.583
 3363SOL     OW12941   4.554   4.766   2.317
 3363SOL    HW112942   4.556   4.740   2.224
 3363SOL    HW212943   4.612   4.703   2.360
 3363SOL     MW12944   4.562   4.755   2.311
 3364SOL     OW12945   4.369   5.020   3.566
 3364SOL    HW112946   4.417   5.103   3.553
 3364SOL    HW212947   4.426   4.968   3.622
 3364SOL     MW12948   4.383   5.024   3.572
 3365SOL     OW12949   4.712   3.819   1.922
 3365SOL    HW112950   4.768   3.811   1.844
 3365SOL    HW212951   4.689   3.729   1.944
 3365SOL     MW12952   4.717   3.806   1.915
 3366SOL     OW12953   4.864   4.681   2.162
 3366SOL    HW112954   4.774   4.702   2.137
 3366SOL    HW212955   4.891   4.754   2.218
 3366SOL     MW12956   4.856   4.693   2.165
 3367SOL     OW12957   5.228   4.040   3.256
 3367SOL    HW112958   5.175   4.042   3.336
 3367SOL    HW212959   5.213   3.953   3.219
 3367SOL     MW12960   5.220   4.030   3.261
 3368SOL     OW12961   3.810   5.122   3.517
 3368SOL    HW112962   3.854   5.055   3.463
 3368SOL    HW212963   3.725   5.084   3.537
 3368SOL     MW12964   3.805   5.108   3.513
 3369SOL     OW12965   4.453   4.454   3.699
 3369SOL    HW112966   4.523   4.396   3.671
 3369SOL    HW212967   4.396   4.399   3.754
 3369SOL     MW12968   4.455   4.441   3.703
 3370SOL     OW12969   5.350   5.072   2.854
 3370SOL    HW112970   5.385   5.054   2.767
 3370SOL    HW212971   5.255   5.073   2.841
 3370SOL     MW12972   5.342   5.069   2.841
 3371SOL     OW12973   4.779   4.720   3.223
 3371SOL    HW112974   4.822   4.755   3.301
 3371SOL    HW212975   4.762   4.797   3.169
 3371SOL     MW12976   4.782   4.735   3.226
 3372SOL     OW12977   3.929   4.924   3.385
 3372SOL    HW112978   3.957   4.877   3.463
 3372SOL    HW212979   3.850   4.879   3.356
 3372SOL     MW12980   3.922   4.913   3.391
 3373SOL     OW12981   4.437   4.251   3.352
 3373SOL    HW112982   4.409   4.339   3.376
 3373SOL    HW212983   4.406   4.195   3.423
 3373SOL     MW12984   4.429   4.254   3.364
 3374SOL     OW12985   4.092   4.647   2.565
 3374SOL    HW112986   4.150   4.703   2.513
 3374SOL    HW212987   4.136   4.562   2.567
 3374SOL     MW12988   4.105   4.644   2.558
 3375SOL     OW12989   4.818   3.961   2.561
 3375SOL    HW112990   4.838   4.036   2.505
 3375SOL    HW212991   4.798   4.000   2.646
 3375SOL     MW12992   4.819   3.977   2.565
 3376SOL     OW12993   4.922   5.104   2.444
 3376SOL    HW112994   4.945   5.055   2.522
 3376SOL    HW212995   5.003   5.146   2.416
 3376SOL     MW12996   4.935   5.104   2.451
 3377SOL     OW12997   4.180   4.112   3.173
 3377SOL    HW112998   4.213   4.193   3.213
 3377SOL    HW212999   4.153   4.138   3.085
 3377SOL     MW13000   4.179   4.126   3.167
 3378SOL     OW13001   4.277   3.857   2.800
 3378SOL    HW113002   4.287   3.766   2.826
 3378SOL    HW213003   4.233   3.853   2.715
 3378SOL     MW13004   4.273   3.845   2.792
 3379SOL     OW13005   4.988   4.761   2.859
 3379SOL    HW113006   5.002   4.733   2.950
 3379SOL    HW213007   5.074   4.792   2.831
 3379SOL     MW13008   5.001   4.762   2.868
 3380SOL     OW13009   4.312   4.797   3.423
 3380SOL    HW113010   4.349   4.802   3.335
 3380SOL    HW213011   4.351   4.870   3.470
 3380SOL     MW13012   4.322   4.807   3.418
 3381SOL     OW13013   4.492   4.840   3.235
 3381SOL    HW113014   4.551   4.786   3.288
 3381SOL    HW213015   4.507   4.812   3.145
 3381SOL     MW13016   4.502   4.829   3.231
 3382SOL     OW13017   4.495   4.212   2.084
 3382SOL    HW113018   4.568   4.261   2.047
 3382SOL    HW213019   4.511   4.121   2.058
 3382SOL     MW13020   4.507   4.207   2.077
 3383SOL     OW13021   3.970   4.721   2.182
 3383SOL    HW113022   3.907   4.737   2.111
 3383SOL    HW213023   3.917   4.684   2.253
 3383SOL     MW13024   3.955   4.718   2.182
 3384SOL     OW13025   4.326   5.075   2.041
 3384SOL    HW113026   4.341   5.051   2.133
 3384SOL    HW213027   4.234   5.053   2.025
 3384SOL     MW13028   4.316   5.068   2.051
 3385SOL     OW13029   4.385   4.517   3.446
 3385SOL    HW113030   4.378   4.612   3.434
 3385SOL    HW213031   4.394   4.506   3.541
 3385SOL     MW13032   4.386   4.529   3.456
 3386SOL     OW13033   4.837   4.128   2.363
 3386SOL    HW113034   4.859   4.065   2.295
 3386SOL    HW213035   4.742   4.120   2.374
 3386SOL     MW13036   4.827   4.119   2.355
 3387SOL     OW13037   3.922   3.818   2.295
 3387SOL    HW113038   3.993   3.839   2.234
 3387SOL    HW213039   3.876   3.746   2.253
 3387SOL     MW13040   3.926   3.812   2.281
 3388SOL     OW13041   5.047   4.869   2.325
 3388SOL    HW113042   5.019   4.955   2.358
 3388SOL    HW213043   5.075   4.885   2.235
 3388SOL     MW13044   5.047   4.883   2.317
 3389SOL     OW13045   3.938   4.511   3.379
 3389SOL    HW113046   3.959   4.580   3.317
 3389SOL    HW213047   4.018   4.458   3.384
 3389SOL     MW13048   3.951   4.512   3.373
 3390SOL     OW13049   4.130   4.480   2.274
 3390SOL    HW113050   4.130   4.575   2.259
 3390SOL    HW213051   4.207   4.464   2.328
 3390SOL     MW13052   4.140   4.491   2.279
 3391SOL     OW13053   3.889   4.211   2.563
 3391SOL    HW113054   3.951   4.218   2.636
 3391SOL    HW213055   3.889   4.118   2.540
 3391SOL     MW13056   3.897   4.200   2.570
 3392SOL     OW13057   4.375   3.942   3.152
 3392SOL    HW113058   4.306   4.005   3.173
 3392SOL    HW213059   4.402   3.906   3.237
 3392SOL     MW13060   4.369   3.945   3.165
 3393SOL     OW13061   3.758   4.783   2.021
 3393SOL    HW113062   3.727   4.848   2.084
 3393SOL    HW213063   3.707   4.705   2.040
 3393SOL     MW13064   3.748   4.780   2.031
 3394SOL     OW13065   4.070   4.760   3.558
 3394SOL    HW113066   4.024   4.676   3.560
 3394SOL    HW213067   4.127   4.754   3.482
 3394SOL     MW13068   4.072   4.748   3.550
 3395SOL     OW13069   4.582   4.300   2.689
 3395SOL    HW113070   4.522   4.318   2.761
 3395SOL    HW213071   4.616   4.212   2.708
 3395SOL     MW13072   4.578   4.290   2.702
 3396SOL     OW13073   4.807   4.883   2.708
 3396SOL    HW113074   4.899   4.864   2.726
 3396SOL    HW213075   4.780   4.813   2.648
 3396SOL     MW13076   4.815   4.871   2.702
 3397SOL     OW13077   4.600   4.703   2.063
 3397SOL    HW113078   4.586   4.615   2.028
 3397SOL    HW213079   4.551   4.760   2.004
 3397SOL     MW13080   4.592   4.698   2.051
 3398SOL     OW13081   4.013   4.427   2.842
 3398SOL    HW113082   3.963   4.426   2.923
 3398SOL    HW213083   4.033   4.519   2.826
 3398SOL     MW13084   4.009   4.439   2.850
 3399SOL     OW13085   4.608   4.472   2.279
 3399SOL    HW113086   4.588   4.458   2.186
 3399SOL    HW213087   4.701   4.451   2.286
 3399SOL     MW13088   4.618   4.467   2.268
 3400SOL     OW13089   5.047   4.715   3.128
 3400SOL    HW113090   5.110   4.712   3.201
 3400SOL    HW213091   4.963   4.733   3.170
 3400SOL     MW13092   5.043   4.717   3.143
 3401SOL     OW13093   3.834   3.735   3.006
 3401SOL    HW113094   3.825   3.736   2.911
 3401SOL    HW213095   3.928   3.747   3.021
 3401SOL     MW13096   3.846   3.738   2.997
 3402SOL     OW13097   4.047   3.862   2.052
 3402SOL    HW113098   3.976   3.917   2.020
 3402SOL    HW213099   4.089   3.828   1.973
 3402SOL     MW13100   4.043   3.864   2.038
 3403SOL     OW13101   3.803   3.961   1.901
 3403SOL    HW113102   3.770   4.040   1.945
 3403SOL    HW213103   3.858   3.994   1.830
 3403SOL     MW13104   3.806   3.975   1.898
 3404SOL     OW13105   4.266   4.758   4.222
 3404SOL    HW113106   4.356   4.733   4.206
 3404SOL    HW213107   4.262   4.851   4.199
 3404SOL     MW13108   4.278   4.767   4.217
 3405SOL     OW13109   4.550   4.214   4.235
 3405SOL    HW113110   4.525   4.302   4.263
 3405SOL    HW213111   4.547   4.217   4.139
 3405SOL     MW13112   4.546   4.226   4.227
 3406SOL     OW13113   4.391   3.997   4.250
 3406SOL    HW113114   4.449   4.073   4.252
 3406SOL    HW213115   4.326   4.018   4.183
 3406SOL     MW13116   4.390   4.009   4.241
 3407SOL     OW13117   4.255   4.428   4.416
 3407SOL    HW113118   4.240   4.348   4.467
 3407SOL    HW213119   4.337   4.463   4.450
 3407SOL     MW13120   4.263   4.420   4.428
 3408SOL     OW13121   4.143   4.668   4.697
 3408SOL    HW113122   4.098   4.675   4.613
 3408SOL    HW213123   4.123   4.751   4.741
 3408SOL     MW13124   4.135   4.680   4.691
 3409SOL     OW13125   4.666   4.685   4.417
 3409SOL    HW113126   4.580   4.672   4.457
 3409SOL    HW213127   4.719   4.612   4.449
 3409SOL     MW13128   4.662   4.674   4.426
 3410SOL     OW13129   4.154   4.020   4.102
 3410SOL    HW113130   4.128   3.982   4.018
 3410SOL    HW213131   4.091   4.090   4.118
 3410SOL     MW13132   4.143   4.023   4.093
 3411SOL     OW13133   5.331   4.820   4.242
 3411SOL    HW113134   5.241   4.820   4.277
 3411SOL    HW213135   5.324   4.866   4.159
 3411SOL     MW13136   5.318   4.826   4.236
 3412SOL     OW13137   5.238   4.798   4.634
 3412SOL    HW113138   5.241   4.732   4.565
 3412SOL    HW213139   5.323   4.841   4.630
 3412SOL     MW13140   5.250   4.794   4.625
 3413SOL     OW13141   4.682   3.752   4.834
 3413SOL    HW113142   4.641   3.830   4.796
 3413SOL    HW213143   4.776   3.770   4.829
 3413SOL     MW13144   4.688   3.764   4.829
 3414SOL     OW13145   4.697   4.430   3.864
 3414SOL    HW113146   4.699   4.377   3.785
 3414SOL    HW213147   4.785   4.467   3.870
 3414SOL     MW13148   4.709   4.429   3.853
 3415SOL     OW13149   4.797   4.349   4.923
 3415SOL    HW113150   4.872   4.378   4.870
 3415SOL    HW213151   4.729   4.414   4.907
 3415SOL     MW13152   4.798   4.361   4.913
 3416SOL     OW13153   3.924   3.956   4.395
 3416SOL    HW113154   3.915   3.896   4.321
 3416SOL    HW213155   3.857   3.927   4.458
 3416SOL     MW13156   3.914   3.943   4.393
 3417SOL     OW13157   3.871   4.129   4.758
 3417SOL    HW113158   3.843   4.220   4.767
 3417SOL    HW213159   3.808   4.090   4.697
 3417SOL     MW13160   3.858   4.135   4.752
 3418SOL     OW13161   4.466   4.882   3.771
 3418SOL    HW113162   4.388   4.828   3.758
 3418SOL    HW213163   4.437   4.955   3.824
 3418SOL     MW13164   4.452   4.884   3.776
 3419SOL     OW13165   3.855   4.404   4.928
 3419SOL    HW113166   3.917   4.434   4.994
 3419SOL    HW213167   3.789   4.473   4.922
 3419SOL     MW13168   3.854   4.417   4.935
 3420SOL     OW13169   4.496   3.961   3.836
 3420SOL    HW113170   4.444   3.881   3.824
 3420SOL    HW213171   4.583   3.938   3.804
 3420SOL     MW13172   4.499   3.947   3.830
 3421SOL     OW13173   4.542   4.736   4.875
 3421SOL    HW113174   4.570   4.645   4.887
 3421SOL    HW213175   4.471   4.730   4.811
 3421SOL     MW13176   4.535   4.724   4.870
 3422SOL     OW13177   3.857   4.601   4.293
 3422SOL    HW113178   3.948   4.616   4.320
 3422SOL    HW213179   3.860   4.522   4.239
 3422SOL     MW13180   3.869   4.593   4.291
 3423SOL     OW13181   4.479   3.859   5.254
 3423SOL    HW113182   4.456   3.767   5.256
 3423SOL    HW213183   4.565   3.861   5.211
 3423SOL     MW13184   4.486   3.849   5.250
 3424SOL     OW13185   4.936   4.480   4.703
 3424SOL    HW113186   4.949   4.574   4.713
 3424SOL    HW213187   4.897   4.470   4.617
 3424SOL     MW13188   4.932   4.491   4.693
 3425SOL     OW13189   4.388   4.675   4.507
 3425SOL    HW113190   4.299   4.666   4.540
 3425SOL    HW213191   4.392   4.765   4.475
 3425SOL     MW13192   4.377   4.686   4.507
 3426SOL     OW13193   4.554   4.766   4.185
 3426SOL    HW113194   4.556   4.740   4.092
 3426SOL    HW213195   4.612   4.703   4.228
 3426SOL     MW13196   4.562   4.755   4.179
 3427SOL     OW13197   4.712   3.819   3.790
 3427SOL    HW113198   4.768   3.811   3.712
 3427SOL    HW213199   4.689   3.729   3.812
 3427SOL     MW13200   4.717   3.806   3.783
 3428SOL     OW13201   4.864   4.681   4.030
 3428SOL    HW113202   4.774   4.702   4.005
 3428SOL    HW213203   4.891   4.754   4.086
 3428SOL     MW13204   4.856   4.693   4.033
 3429SOL     OW13205   4.493   3.797   4.437
 3429SOL    HW113206   4.422   3.858   4.419
 3429SOL    HW213207   4.544   3.794   4.356
 3429SOL     MW13208   4.489   3.803   4.424
 3430SOL     OW13209   5.350   5.072   4.722
 3430SOL    HW113210   5.385   5.054   4.635
 3430SOL    HW213211   5.255   5.073   4.709
 3430SOL     MW13212   5.342   5.069   4.709
 3431SOL     OW13213   4.170   3.862   4.393
 3431SOL    HW113214   4.220   3.905   4.324
 3431SOL    HW213215   4.085   3.906   4.393
 3431SOL     MW13216   4.167   3.875   4.384
 3432SOL     OW13217   4.979   4.469   3.939
 3432SOL    HW113218   5.026   4.487   3.858
 3432SOL    HW213219   4.945   4.553   3.967
 3432SOL     MW13220   4.981   4.483   3.932
 3433SOL     OW13221   4.092   4.647   4.433
 3433SOL    HW113222   4.150   4.703   4.381
 3433SOL    HW213223   4.136   4.562   4.435
 3433SOL     MW13224   4.105   4.644   4.426
 3434SOL     OW13225   3.754   4.373   4.152
 3434SOL    HW113226   3.694   4.345   4.222
 3434SOL    HW213227   3.828   4.313   4.158
 3434SOL     MW13228   3.756   4.362   4.161
 3435SOL     OW13229   4.922   5.104   4.312
 3435SOL    HW113230   4.945   5.055   4.390
 3435SOL    HW213231   5.003   5.146   4.284
 3435SOL     MW13232   4.935   5.104   4.319
 3436SOL     OW13233   4.277   3.857   4.668
 3436SOL    HW113234   4.287   3.766   4.694
 3436SOL    HW213235   4.233   3.853   4.583
 3436SOL     MW13236   4.273   3.845   4.660
 3437SOL     OW13237   4.988   4.761   4.727
 3437SOL    HW113238   5.002   4.733   4.818
 3437SOL    HW213239   5.074   4.792   4.699
 3437SOL     MW13240   5.001   4.762   4.736
 3438SOL     OW13241   4.198   5.009   4.957
 3438SOL    HW113242   4.210   5.036   5.048
 3438SOL    HW213243   4.179   5.090   4.910
 3438SOL     MW13244   4.197   5.024   4.962
 3439SOL     OW13245   4.482   3.989   4.780
 3439SOL    HW113246   4.455   3.991   4.871
 3439SOL    HW213247   4.412   3.941   4.735
 3439SOL     MW13248   4.470   3.985   4.787
 3440SOL     OW13249   4.312   4.797   5.291
 3440SOL    HW113250   4.349   4.802   5.203
 3440SOL    HW213251   4.351   4.870   5.338
 3440SOL     MW13252   4.322   4.807   5.286
 3441SOL     OW13253   4.495   4.212   3.952
 3441SOL    HW113254   4.568   4.261   3.915
 3441SOL    HW213255   4.511   4.121   3.926
 3441SOL     MW13256   4.507   4.207   3.945
 3442SOL     OW13257   4.326   5.075   3.909
 3442SOL    HW113258   4.341   5.051   4.001
 3442SOL    HW213259   4.234   5.053   3.893
 3442SOL     MW13260   4.316   5.068   3.919
 3443SOL     OW13261   4.201   4.187   4.507
 3443SOL    HW113262   4.272   4.135   4.470
 3443SOL    HW213263   4.187   4.152   4.594
 3443SOL     MW13264   4.209   4.176   4.514
 3444SOL     OW13265   4.517   5.280   4.583
 3444SOL    HW113266   4.445   5.217   4.596
 3444SOL    HW213267   4.478   5.365   4.601
 3444SOL     MW13268   4.501   5.283   4.586
 3445SOL     OW13269   4.837   4.128   4.231
 3445SOL    HW113270   4.859   4.065   4.163
 3445SOL    HW213271   4.742   4.120   4.242
 3445SOL     MW13272   4.827   4.119   4.223
 3446SOL     OW13273   4.709   3.789   4.246
 3446SOL    HW113274   4.746   3.848   4.311
 3446SOL    HW213275   4.686   3.845   4.172
 3446SOL     MW13276   4.710   3.804   4.245
 3447SOL     OW13277   3.889   4.211   4.431
 3447SOL    HW113278   3.951   4.218   4.504
 3447SOL    HW213279   3.889   4.118   4.408
 3447SOL     MW13280   3.897   4.200   4.438
 3448SOL     OW13281   3.758   4.783   3.889
 3448SOL    HW113282   3.727   4.848   3.952
 3448SOL    HW213283   3.707   4.705   3.908
 3448SOL     MW13284   3.748   4.780   3.899
 3449SOL     OW13285   4.582   4.300   4.557
 3449SOL    HW113286   4.522   4.318   4.629
 3449SOL    HW213287   4.616   4.212   4.576
 3449SOL     MW13288   4.578   4.290   4.570
 3450SOL     OW13289   4.600   4.703   3.931
 3450SOL    HW113290   4.586   4.615   3.896
 3450SOL    HW213291   4.551   4.760   3.872
 3450SOL     MW13292   4.592   4.698   3.919
 3451SOL     OW13293   4.013   4.427   4.710
 3451SOL    HW113294   3.963   4.426   4.791
 3451SOL    HW213295   4.033   4.519   4.694
 3451SOL     MW13296   4.009   4.439   4.718
 3452SOL     OW13297   4.608   4.472   4.147
 3452SOL    HW113298   4.588   4.458   4.054
 3452SOL    HW213299   4.701   4.451   4.154
 3452SOL     MW13300   4.618   4.467   4.136
 3453SOL     OW13301   3.834   3.735   4.874
 3453SOL    HW113302   3.825   3.736   4.779
 3453SOL    HW213303   3.928   3.747   4.889
 3453SOL     MW13304   3.846   3.738   4.865
 3454SOL     OW13305   4.047   3.862   3.920
 3454SOL    HW113306   3.976   3.917   3.888
 3454SOL    HW213307   4.089   3.828   3.841
 3454SOL     MW13308   4.043   3.864   3.906
 3455SOL     OW13309   3.803   3.961   3.769
 3455SOL    HW113310   3.770   4.040   3.813
 3455SOL    HW213311   3.858   3.994   3.698
 3455SOL     MW13312   3.806   3.975   3.766
   5.00000   5.00000   5.00000
